 Entering Gaussian System, Link 0=g16
 Input=enolc_h2o_mp2_avdz_opt_anharm.gjf
 Output=enolc_h2o_mp2_avdz_opt_anharm.log
 Initial command:
 /sw/contrib/chem-src/g16/c01/g16/l1.exe "/scr/Gau-51542.inp" -scrdir="/scr/"
 Entering Link 1 = /sw/contrib/chem-src/g16/c01/g16/l1.exe PID=     51543.
  
 Copyright (c) 1988-2019, Gaussian, Inc.  All Rights Reserved.
  
 This is part of the Gaussian(R) 16 program.  It is based on
 the Gaussian(R) 09 system (copyright 2009, Gaussian, Inc.),
 the Gaussian(R) 03 system (copyright 2003, Gaussian, Inc.),
 the Gaussian(R) 98 system (copyright 1998, Gaussian, Inc.),
 the Gaussian(R) 94 system (copyright 1995, Gaussian, Inc.),
 the Gaussian 92(TM) system (copyright 1992, Gaussian, Inc.),
 the Gaussian 90(TM) system (copyright 1990, Gaussian, Inc.),
 the Gaussian 88(TM) system (copyright 1988, Gaussian, Inc.),
 the Gaussian 86(TM) system (copyright 1986, Carnegie Mellon
 University), and the Gaussian 82(TM) system (copyright 1983,
 Carnegie Mellon University). Gaussian is a federally registered
 trademark of Gaussian, Inc.
  
 This software contains proprietary and confidential information,
 including trade secrets, belonging to Gaussian, Inc.
  
 This software is provided under written license and may be
 used, copied, transmitted, or stored only in accord with that
 written license.
  
 The following legend is applicable only to US Government
 contracts under FAR:
  
                    RESTRICTED RIGHTS LEGEND
  
 Use, reproduction and disclosure by the US Government is
 subject to restrictions as set forth in subparagraphs (a)
 and (c) of the Commercial Computer Software - Restricted
 Rights clause in FAR 52.227-19.
  
 Gaussian, Inc.
 340 Quinnipiac St., Bldg. 40, Wallingford CT 06492
  
  
 ---------------------------------------------------------------
 Warning -- This program may not be used in any manner that
 competes with the business of Gaussian, Inc. or will provide
 assistance to any competitor of Gaussian, Inc.  The licensee
 of this program is prohibited from giving any competitor of
 Gaussian, Inc. access to this program.  By using this program,
 the user acknowledges that Gaussian, Inc. is engaged in the
 business of creating and licensing software in the field of
 computational chemistry and represents and warrants to the
 licensee that it is not a competitor of Gaussian, Inc. and that
 it will not use this program in any manner prohibited above.
 ---------------------------------------------------------------
  

 Cite this work as:
 Gaussian 16, Revision C.01,
 M. J. Frisch, G. W. Trucks, H. B. Schlegel, G. E. Scuseria, 
 M. A. Robb, J. R. Cheeseman, G. Scalmani, V. Barone, 
 G. A. Petersson, H. Nakatsuji, X. Li, M. Caricato, A. V. Marenich, 
 J. Bloino, B. G. Janesko, R. Gomperts, B. Mennucci, H. P. Hratchian, 
 J. V. Ortiz, A. F. Izmaylov, J. L. Sonnenberg, D. Williams-Young, 
 F. Ding, F. Lipparini, F. Egidi, J. Goings, B. Peng, A. Petrone, 
 T. Henderson, D. Ranasinghe, V. G. Zakrzewski, J. Gao, N. Rega, 
 G. Zheng, W. Liang, M. Hada, M. Ehara, K. Toyota, R. Fukuda, 
 J. Hasegawa, M. Ishida, T. Nakajima, Y. Honda, O. Kitao, H. Nakai, 
 T. Vreven, K. Throssell, J. A. Montgomery, Jr., J. E. Peralta, 
 F. Ogliaro, M. J. Bearpark, J. J. Heyd, E. N. Brothers, K. N. Kudin, 
 V. N. Staroverov, T. A. Keith, R. Kobayashi, J. Normand, 
 K. Raghavachari, A. P. Rendell, J. C. Burant, S. S. Iyengar, 
 J. Tomasi, M. Cossi, J. M. Millam, M. Klene, C. Adamo, R. Cammi, 
 J. W. Ochterski, R. L. Martin, K. Morokuma, O. Farkas, 
 J. B. Foresman, and D. J. Fox, Gaussian, Inc., Wallingford CT, 2019.
 
 ******************************************
 Gaussian 16:  EM64L-G16RevC.01  3-Jul-2019
                21-Mar-2025 
 ******************************************
 %nprocshared=40
 Will use up to   40 processors via shared memory.
 %mem=50gb
 ----------------------------------------------
 # MP2/aug-cc-pVDZ opt freq=(vibrot,anharmonic)
 ----------------------------------------------
 1/18=20,19=15,38=1,80=1/1,3;
 2/9=110,12=2,17=6,18=5,40=1/2;
 3/5=16,7=10,11=9,25=1,30=1,71=1/1,2,3;
 4//1;
 5/5=2,38=5/2;
 8/6=4,10=1/1;
 9/15=2,16=-3/6;
 10/5=1/2;
 6/7=2,8=2,9=2,10=2/1;
 7/12=2/1,2,3,16;
 1/18=20,19=15,80=1/3(2);
 2/9=110/2;
 99//99;
 2/9=110/2;
 3/5=16,7=10,11=9,25=1,30=1,71=1/1,2,3;
 4/5=5,16=3,69=1/1;
 5/5=2,38=5/2;
 8/6=4,10=1/1;
 9/15=2,16=-3/6;
 10/5=1/2;
 7/12=2/1,2,3,16;
 1/18=20,19=15,80=1/3(-8);
 2/9=110/2;
 6/7=2,8=2,9=2,10=2/1;
 99/9=10/99;
 ----
 blah
 ----
 Symbolic Z-matrix:
 Charge =  0 Multiplicity = 1
 C                    -0.29294   1.20221   0.45543 
 C                    -0.73207  -0.05479   0.38738 
 H                     0.15667   1.64086   1.3375 
 O                    -0.35192   2.09804  -0.57319 
 H                    -0.65243  -0.71155   1.24693 
 H                    -1.17684  -0.45632  -0.51616 
 H                    -0.76568   1.66679  -1.35863 
 O                    -1.43435   1.23762  -2.88467 
 H                    -0.93822   1.03759  -3.69743 
 H                    -2.3098    1.49266  -3.22419 
 
 Add virtual bond connecting atoms O8         and H7         Dist= 3.25D+00.

 GradGradGradGradGradGradGradGradGradGradGradGradGradGradGradGradGradGrad
 Berny optimization.
 Initialization pass.
                           ----------------------------
                           !    Initial Parameters    !
                           ! (Angstroms and Degrees)  !
 --------------------------                            --------------------------
 ! Name  Definition              Value          Derivative Info.                !
 --------------------------------------------------------------------------------
 ! R1    R(1,2)                  1.3332         estimate D2E/DX2                !
 ! R2    R(1,3)                  1.0829         estimate D2E/DX2                !
 ! R3    R(1,4)                  1.3653         estimate D2E/DX2                !
 ! R4    R(2,5)                  1.0847         estimate D2E/DX2                !
 ! R5    R(2,6)                  1.0842         estimate D2E/DX2                !
 ! R6    R(4,7)                  0.987          estimate D2E/DX2                !
 ! R7    R(7,8)                  1.7205         estimate D2E/DX2                !
 ! R8    R(8,9)                  0.973          estimate D2E/DX2                !
 ! R9    R(8,10)                 0.973          estimate D2E/DX2                !
 ! A1    A(2,1,3)              124.0729         estimate D2E/DX2                !
 ! A2    A(2,1,4)              124.4679         estimate D2E/DX2                !
 ! A3    A(3,1,4)              111.4592         estimate D2E/DX2                !
 ! A4    A(1,2,5)              120.4142         estimate D2E/DX2                !
 ! A5    A(1,2,6)              121.7918         estimate D2E/DX2                !
 ! A6    A(5,2,6)              117.7941         estimate D2E/DX2                !
 ! A7    A(1,4,7)              109.3277         estimate D2E/DX2                !
 ! A8    A(7,8,9)              126.4423         estimate D2E/DX2                !
 ! A9    A(7,8,10)             126.427          estimate D2E/DX2                !
 ! A10   A(9,8,10)             102.779          estimate D2E/DX2                !
 ! A11   L(4,7,8,6,-1)         192.0964         estimate D2E/DX2                !
 ! A12   L(4,7,8,6,-2)         180.0031         estimate D2E/DX2                !
 ! D1    D(3,1,2,5)             -0.0001         estimate D2E/DX2                !
 ! D2    D(3,1,2,6)            179.9995         estimate D2E/DX2                !
 ! D3    D(4,1,2,5)           -180.0            estimate D2E/DX2                !
 ! D4    D(4,1,2,6)             -0.0004         estimate D2E/DX2                !
 ! D5    D(2,1,4,7)             -0.0022         estimate D2E/DX2                !
 ! D6    D(3,1,4,7)            179.9979         estimate D2E/DX2                !
 ! D7    D(1,4,8,9)           -106.7849         estimate D2E/DX2                !
 ! D8    D(1,4,8,10)           106.9009         estimate D2E/DX2                !
 ! D9    D(7,8,9,10)          -157.5724         estimate D2E/DX2                !
 --------------------------------------------------------------------------------
 Trust Radius=3.00D-01 FncErr=1.00D-07 GrdErr=1.00D-07 EigMax=2.50D+02 EigMin=1.00D-04
 Number of steps in this run=     40 maximum allowed number of steps=    100.
 GradGradGradGradGradGradGradGradGradGradGradGradGradGradGradGradGradGrad

                          Input orientation:                          
 ---------------------------------------------------------------------
 Center     Atomic      Atomic             Coordinates (Angstroms)
 Number     Number       Type             X           Y           Z
 ---------------------------------------------------------------------
      1          6           0       -0.292944    1.202213    0.455430
      2          6           0       -0.732071   -0.054789    0.387384
      3          1           0        0.156673    1.640863    1.337501
      4          8           0       -0.351915    2.098045   -0.573192
      5          1           0       -0.652431   -0.711553    1.246933
      6          1           0       -1.176838   -0.456321   -0.516162
      7          1           0       -0.765682    1.666788   -1.358629
      8          8           0       -1.434347    1.237622   -2.884670
      9          1           0       -0.938216    1.037592   -3.697431
     10          1           0       -2.309803    1.492662   -3.224187
 ---------------------------------------------------------------------
                    Distance matrix (angstroms):
                    1          2          3          4          5
     1  C    0.000000
     2  C    1.333235   0.000000
     3  H    1.082875   2.137246   0.000000
     4  O    1.365305   2.387869   2.029391   0.000000
     5  H    2.101953   1.084668   2.489319   3.361101   0.000000
     6  H    2.115655   1.084178   3.100403   2.684872   1.857054
     7  H    1.931352   2.452247   2.849654   0.986963   3.529628
     8  O    3.529919   3.587458   4.529975   2.693495   4.634740
     9  H    4.205917   4.233380   5.187799   3.350996   5.252419
    10  H    4.206146   4.234063   5.187915   3.350759   5.253223
                    6          7          8          9         10
     6  H    0.000000
     7  H    2.320860   0.000000
     8  O    2.923283   1.720493   0.000000
     9  H    3.522668   2.428096   0.973005   0.000000
    10  H    3.523570   2.427949   0.973006   1.520624   0.000000
 Stoichiometry    C2H6O2
 Framework group  C1[X(C2H6O2)]
 Deg. of freedom    24
 Full point group                 C1      NOp   1
 Largest Abelian subgroup         C1      NOp   1
 Largest concise Abelian subgroup C1      NOp   1
                         Standard orientation:                         
 ---------------------------------------------------------------------
 Center     Atomic      Atomic             Coordinates (Angstroms)
 Number     Number       Type             X           Y           Z
 ---------------------------------------------------------------------
      1          6           0        1.350387   -0.326195    0.000037
      2          6           0        1.379930    1.006713   -0.000068
      3          1           0        2.233696   -0.952599    0.000136
      4          8           0        0.207924   -1.073748    0.000030
      5          1           0        2.327273    1.534960   -0.000055
      6          1           0        0.471296    1.598175   -0.000175
      7          1           0       -0.575357   -0.473276   -0.000029
      8          8           0       -2.129825    0.264102   -0.000017
      9          1           0       -2.731543    0.344178    0.760418
     10          1           0       -2.732060    0.342626   -0.760206
 ---------------------------------------------------------------------
 Rotational constants (GHZ):          12.5113542           3.4801311           2.7573906
 Standard basis: Aug-CC-pVDZ (5D, 7F)
 There are   154 symmetry adapted cartesian basis functions of A   symmetry.
 There are   146 symmetry adapted basis functions of A   symmetry.
   146 basis functions,   238 primitive gaussians,   154 cartesian basis functions
    17 alpha electrons       17 beta electrons
       nuclear repulsion energy       118.5318942233 Hartrees.
 NAtoms=   10 NActive=   10 NUniq=   10 SFac= 1.00D+00 NAtFMM=   60 NAOKFM=F Big=F
 Integral buffers will be    131072 words long.
 Raffenetti 1 integral format.
 Two-electron integral symmetry is turned on.
 One-electron integrals computed using PRISM.
 NBasis=   146 RedAO= T EigKep=  5.67D-05  NBF=   146
 NBsUse=   146 1.00D-06 EigRej= -1.00D+00 NBFU=   146
 ExpMin= 2.97D-02 ExpMax= 1.17D+04 ExpMxC= 4.01D+02 IAcc=3 IRadAn=         5 AccDes= 0.00D+00
 Harris functional with IExCor=  205 and IRadAn=       5 diagonalized for initial guess.
 HarFok:  IExCor=  205 AccDes= 0.00D+00 IRadAn=         5 IDoV= 1 UseB2=F ITyADJ=14
 ICtDFT=  3500011 ScaDFX=  1.000000  1.000000  1.000000  1.000000
 FoFCou: FMM=F IPFlag=           0 FMFlag=      100000 FMFlg1=           0
         NFxFlg=           0 DoJE=T BraDBF=F KetDBF=T FulRan=T
         wScrn=  0.000000 ICntrl=       500 IOpCl=  0 I1Cent=   200000004 NGrid=           0
         NMat0=    1 NMatS0=      1 NMatT0=    0 NMatD0=    1 NMtDS0=    0 NMtDT0=    0
 Petite list used in FoFCou.
 Keep R1 ints in memory in canonical form, NReq=66251630.
 Requested convergence on RMS density matrix=1.00D-08 within 128 cycles.
 Requested convergence on MAX density matrix=1.00D-06.
 Requested convergence on             energy=1.00D-06.
 No special actions if energy rises.
 SCF Done:  E(RHF) =  -228.963430430     A.U. after   13 cycles
            NFock= 13  Conv=0.56D-08     -V/T= 2.0017
 ExpMin= 2.97D-02 ExpMax= 1.17D+04 ExpMxC= 4.01D+02 IAcc=3 IRadAn=         5 AccDes= 0.00D+00
 HarFok:  IExCor=  205 AccDes= 0.00D+00 IRadAn=         5 IDoV=-2 UseB2=F ITyADJ=14
 ICtDFT= 12500011 ScaDFX=  1.000000  1.000000  1.000000  1.000000
 Range of M.O.s used for correlation:     5   146
 NBasis=   146 NAE=    17 NBE=    17 NFC=     4 NFV=     0
 NROrb=    142 NOA=    13 NOB=    13 NVA=   129 NVB=   129

 **** Warning!!: The largest alpha MO coefficient is  0.32533850D+02

 Fully direct method using O(ONN) memory.
 JobTyp=1 Pass  1:  I=   5 to  17 NPSUse= 40 ParTrn=T ParDer=T DoDerP=T.
 Spin components of T(2) and E(2):
     alpha-alpha T2 =       0.2793339602D-01 E2=     -0.8926075765D-01
     alpha-beta  T2 =       0.1618648472D+00 E2=     -0.5284039542D+00
     beta-beta   T2 =       0.2793339602D-01 E2=     -0.8926075765D-01
 ANorm=    0.1103508785D+01
 E2 =    -0.7069254695D+00 EUMP2 =    -0.22967035589922D+03
          IDoAtm=1111111111
          Differentiating once with respect to electric field.
                with respect to dipole field.
          Differentiating once with respect to nuclear coordinates.
 Keep R1 ints in memory in canonical form, NReq=66259067.
          There are     1 degrees of freedom in the 1st order CPHF.  IDoFFX=0 NUNeed=     1.
 LinEq1:  Iter=  0 NonCon=     1 RMS=4.56D-03 Max=7.35D-02 NDo=     1
 AX will form     1 AO Fock derivatives at one time.
 LinEq1:  Iter=  1 NonCon=     1 RMS=1.10D-03 Max=8.90D-03 NDo=     1
 LinEq1:  Iter=  2 NonCon=     1 RMS=3.91D-04 Max=4.96D-03 NDo=     1
 LinEq1:  Iter=  3 NonCon=     1 RMS=9.33D-05 Max=9.75D-04 NDo=     1
 LinEq1:  Iter=  4 NonCon=     1 RMS=3.60D-05 Max=4.34D-04 NDo=     1
 LinEq1:  Iter=  5 NonCon=     1 RMS=9.60D-06 Max=1.35D-04 NDo=     1
 LinEq1:  Iter=  6 NonCon=     1 RMS=3.03D-06 Max=2.78D-05 NDo=     1
 LinEq1:  Iter=  7 NonCon=     1 RMS=7.46D-07 Max=7.05D-06 NDo=     1
 LinEq1:  Iter=  8 NonCon=     1 RMS=2.34D-07 Max=2.27D-06 NDo=     1
 LinEq1:  Iter=  9 NonCon=     1 RMS=7.00D-08 Max=6.31D-07 NDo=     1
 LinEq1:  Iter= 10 NonCon=     1 RMS=1.38D-08 Max=1.25D-07 NDo=     1
 LinEq1:  Iter= 11 NonCon=     1 RMS=2.87D-09 Max=2.16D-08 NDo=     1
 LinEq1:  Iter= 12 NonCon=     1 RMS=4.22D-10 Max=3.79D-09 NDo=     1
 LinEq1:  Iter= 13 NonCon=     0 RMS=7.55D-11 Max=7.54D-10 NDo=     1
 Linear equations converged to 1.000D-10 1.000D-09 after    13 iterations.
 End of Minotr F.D. properties file   721 does not exist.
 End of Minotr F.D. properties file   722 does not exist.
 End of Minotr F.D. properties file   788 does not exist.

 **********************************************************************

            Population analysis using the SCF Density.

 **********************************************************************

 Orbital symmetries:
       Occupied  (A) (A) (A) (A) (A) (A) (A) (A) (A) (A) (A) (A)
                 (A) (A) (A) (A) (A)
       Virtual   (A) (A) (A) (A) (A) (A) (A) (A) (A) (A) (A) (A)
                 (A) (A) (A) (A) (A) (A) (A) (A) (A) (A) (A) (A)
                 (A) (A) (A) (A) (A) (A) (A) (A) (A) (A) (A) (A)
                 (A) (A) (A) (A) (A) (A) (A) (A) (A) (A) (A) (A)
                 (A) (A) (A) (A) (A) (A) (A) (A) (A) (A) (A) (A)
                 (A) (A) (A) (A) (A) (A) (A) (A) (A) (A) (A) (A)
                 (A) (A) (A) (A) (A) (A) (A) (A) (A) (A) (A) (A)
                 (A) (A) (A) (A) (A) (A) (A) (A) (A) (A) (A) (A)
                 (A) (A) (A) (A) (A) (A) (A) (A) (A) (A) (A) (A)
                 (A) (A) (A) (A) (A) (A) (A) (A) (A) (A) (A) (A)
                 (A) (A) (A) (A) (A) (A) (A) (A) (A)
 The electronic state is 1-A.
 Alpha  occ. eigenvalues --  -20.61669 -20.56232 -11.28723 -11.20252  -1.39315
 Alpha  occ. eigenvalues --   -1.36685  -1.00170  -0.80907  -0.74553  -0.67356
 Alpha  occ. eigenvalues --   -0.64547  -0.62094  -0.54840  -0.54436  -0.51950
 Alpha  occ. eigenvalues --   -0.51141  -0.32669
 Alpha virt. eigenvalues --    0.02373   0.04952   0.05159   0.05645   0.07316
 Alpha virt. eigenvalues --    0.08129   0.12502   0.13275   0.13879   0.14861
 Alpha virt. eigenvalues --    0.16786   0.17255   0.18892   0.20722   0.20753
 Alpha virt. eigenvalues --    0.22197   0.22823   0.24535   0.25234   0.25929
 Alpha virt. eigenvalues --    0.27297   0.31428   0.31473   0.33074   0.34942
 Alpha virt. eigenvalues --    0.36459   0.36900   0.38905   0.39968   0.40673
 Alpha virt. eigenvalues --    0.43497   0.44059   0.47302   0.48513   0.50916
 Alpha virt. eigenvalues --    0.52643   0.54047   0.54112   0.54611   0.55600
 Alpha virt. eigenvalues --    0.56362   0.58478   0.62283   0.63171   0.63369
 Alpha virt. eigenvalues --    0.65802   0.67005   0.67614   0.70073   0.70105
 Alpha virt. eigenvalues --    0.70797   0.74378   0.74994   0.78338   0.81723
 Alpha virt. eigenvalues --    0.84093   0.87295   0.87577   0.90755   0.94407
 Alpha virt. eigenvalues --    0.97531   0.98395   0.99401   1.06348   1.08296
 Alpha virt. eigenvalues --    1.12256   1.12960   1.19404   1.23443   1.25537
 Alpha virt. eigenvalues --    1.27207   1.32062   1.33216   1.37758   1.44095
 Alpha virt. eigenvalues --    1.49511   1.50868   1.54416   1.57911   1.61327
 Alpha virt. eigenvalues --    1.64305   1.65068   1.68965   1.71841   1.77509
 Alpha virt. eigenvalues --    1.80850   1.83086   1.89408   1.95323   1.97227
 Alpha virt. eigenvalues --    2.00786   2.00996   2.01410   2.04517   2.10437
 Alpha virt. eigenvalues --    2.11532   2.13115   2.17382   2.18161   2.25839
 Alpha virt. eigenvalues --    2.26938   2.37639   2.38576   2.44465   2.46980
 Alpha virt. eigenvalues --    2.51471   2.55908   2.60669   2.71405   2.73546
 Alpha virt. eigenvalues --    2.83591   2.85869   2.89910   2.98629   3.01169
 Alpha virt. eigenvalues --    3.14343   3.16664   3.29715   3.63485   3.66769
 Alpha virt. eigenvalues --    3.75437   3.75450   3.80943   3.82329   3.88059
 Alpha virt. eigenvalues --    4.01914   4.06058   4.29425   4.46872
          Condensed to atoms (all electrons):
               1          2          3          4          5          6
     1  C    4.607147   0.459635   0.278408  -0.065970  -0.172756   0.083029
     2  C    0.459635   4.627056  -0.097403  -0.023680   0.365395   0.183048
     3  H    0.278408  -0.097403   1.275795  -0.168402  -0.092142   0.053264
     4  O   -0.065970  -0.023680  -0.168402   8.805712   0.030230  -0.075580
     5  H   -0.172756   0.365395  -0.092142   0.030230   1.476378  -0.307800
     6  H    0.083029   0.183048   0.053264  -0.075580  -0.307800   1.373450
     7  H   -0.094301   0.012943   0.011980   0.270023   0.006985   0.002436
     8  O    0.038711  -0.025259   0.001616  -0.076733  -0.005240   0.003955
     9  H   -0.001390   0.000534   0.000102  -0.001573  -0.000071   0.001005
    10  H   -0.001394   0.000538   0.000104  -0.001572  -0.000071   0.001012
               7          8          9         10
     1  C   -0.094301   0.038711  -0.001390  -0.001394
     2  C    0.012943  -0.025259   0.000534   0.000538
     3  H    0.011980   0.001616   0.000102   0.000104
     4  O    0.270023  -0.076733  -0.001573  -0.001572
     5  H    0.006985  -0.005240  -0.000071  -0.000071
     6  H    0.002436   0.003955   0.001005   0.001012
     7  H    0.557788  -0.079462   0.000275   0.000272
     8  O   -0.079462   7.957093   0.357660   0.357654
     9  H    0.000275   0.357660   0.475062  -0.045313
    10  H    0.000272   0.357654  -0.045313   0.475117
 Mulliken charges:
               1
     1  C    0.868881
     2  C    0.497193
     3  H   -0.263321
     4  O   -0.692454
     5  H   -0.300907
     6  H   -0.317819
     7  H    0.311061
     8  O   -0.529996
     9  H    0.213709
    10  H    0.213653
 Sum of Mulliken charges =  -0.00000
 Mulliken charges with hydrogens summed into heavy atoms:
               1
     1  C    0.605561
     2  C   -0.121534
     4  O   -0.381393
     8  O   -0.102634
 Electronic spatial extent (au):  <R**2>=            437.4814
 Charge=             -0.0000 electrons
 Dipole moment (field-independent basis, Debye):
    X=             -3.4103    Y=              1.3587    Z=              0.0003  Tot=              3.6710
 Quadrupole moment (field-independent basis, Debye-Ang):
   XX=            -11.6265   YY=            -28.3647   ZZ=            -25.7502
   XY=             -2.7183   XZ=              0.0002   YZ=              0.0033
 Traceless Quadrupole moment (field-independent basis, Debye-Ang):
   XX=             10.2873   YY=             -6.4509   ZZ=             -3.8364
   XY=             -2.7183   XZ=              0.0002   YZ=              0.0033
 Octapole moment (field-independent basis, Debye-Ang**2):
  XXX=            -48.4860  YYY=              0.8504  ZZZ=              0.0013  XYY=             -2.1165
  XXY=              1.2067  XXZ=             -0.0014  XZZ=            -15.1093  YZZ=             -1.5978
  YYZ=              0.0019  XYZ=             -0.0095
 Hexadecapole moment (field-independent basis, Debye-Ang**3):
 XXXX=           -246.4722 YYYY=           -136.1135 ZZZZ=            -31.6666 XXXY=            -26.7925
 XXXZ=              0.0154 YYYX=             -5.2269 YYYZ=              0.0023 ZZZX=             -0.0010
 ZZZY=              0.0045 XXYY=            -81.3866 XXZZ=            -57.1307 YYZZ=            -29.4373
 XXYZ=              0.0229 YYXZ=             -0.0059 ZZXY=             -7.1126
 N-N= 1.185318942233D+02 E-N=-7.768197407562D+02  KE= 2.285798530663D+02
 Calling FoFJK, ICntrl=  10002127 FMM=F ISym2X=0 I1Cent= 0 IOpClX= 0 NMat=1 NMatS=1 NMatT=0.
 ***** Axes restored to original set *****
 -------------------------------------------------------------------
 Center     Atomic                   Forces (Hartrees/Bohr)
 Number     Number              X              Y              Z
 -------------------------------------------------------------------
      1        6           0.001603324    0.015420376   -0.010120724
      2        6          -0.004570907   -0.019601490    0.005530971
      3        1           0.002815431    0.001548624    0.006670898
      4        8          -0.000507482    0.002154273   -0.003530282
      5        1           0.000866883   -0.001578481    0.004021675
      6        1          -0.002418259   -0.001509864   -0.005555074
      7        1           0.004578096    0.006105875    0.007402618
      8        8          -0.006678458   -0.002815969   -0.016648009
      9        1          -0.000067686    0.000876866    0.006881155
     10        1           0.004379057   -0.000600208    0.005346773
 -------------------------------------------------------------------
 Cartesian Forces:  Max     0.019601490 RMS     0.006947558

 GradGradGradGradGradGradGradGradGradGradGradGradGradGradGradGradGradGrad
 Berny optimization.
 FormGI is forming the generalized inverse of G from B-inverse, IUseBI=4.
 Internal  Forces:  Max     0.023204908 RMS     0.005613303
 Search for a local minimum.
 Step number   1 out of a maximum of   40
 All quantities printed in internal units (Hartrees-Bohrs-Radians)
 Mixed Optimization -- RFO/linear search
 Second derivative matrix not updated -- first step.
 ITU=  0
     Eigenvalues ---    0.00230   0.00230   0.00230   0.01417   0.02151
     Eigenvalues ---    0.02739   0.02972   0.02972   0.07114   0.15283
     Eigenvalues ---    0.16000   0.16000   0.16000   0.16000   0.16000
     Eigenvalues ---    0.22000   0.35436   0.35494   0.35649   0.50039
     Eigenvalues ---    0.51890   0.52768   0.52768   0.58748
 RFO step:  Lambda=-3.94418317D-03 EMin= 2.30000000D-03
 Linear search not attempted -- first point.
 Maximum step size (   0.300) exceeded in Quadratic search.
    -- Step size scaled by   0.650
 Iteration  1 RMS(Cart)=  0.12066400 RMS(Int)=  0.01846358
 Iteration  2 RMS(Cart)=  0.07325720 RMS(Int)=  0.00133983
 Iteration  3 RMS(Cart)=  0.00210536 RMS(Int)=  0.00011211
 Iteration  4 RMS(Cart)=  0.00000029 RMS(Int)=  0.00011211
 Variable       Old X    -DE/DX   Delta X   Delta X   Delta X     New X
                                 (Linear)    (Quad)   (Total)
    R1        2.51945   0.02320   0.00000   0.02552   0.02552   2.54497
    R2        2.04634   0.00723   0.00000   0.01305   0.01305   2.05938
    R3        2.58005   0.00409   0.00000   0.00509   0.00509   2.58514
    R4        2.04972   0.00421   0.00000   0.00764   0.00764   2.05736
    R5        2.04880   0.00618   0.00000   0.01120   0.01120   2.06000
    R6        1.86509  -0.00482   0.00000  -0.00624  -0.00624   1.85885
    R7        3.25126   0.00545   0.00000   0.04730   0.04730   3.29856
    R8        1.83871  -0.00596   0.00000  -0.00729  -0.00729   1.83142
    R9        1.83871  -0.00596   0.00000  -0.00730  -0.00730   1.83142
    A1        2.16548  -0.00597   0.00000  -0.01907  -0.01907   2.14641
    A2        2.17237   0.00867   0.00000   0.02517   0.02517   2.19755
    A3        1.94533  -0.00270   0.00000  -0.00610  -0.00610   1.93923
    A4        2.10162  -0.00119   0.00000  -0.00472  -0.00472   2.09691
    A5        2.12567  -0.00031   0.00000  -0.00124  -0.00124   2.12443
    A6        2.05589   0.00150   0.00000   0.00596   0.00596   2.06185
    A7        1.90813   0.00007   0.00000   0.00027   0.00027   1.90840
    A8        2.20684  -0.00237   0.00000  -0.01103  -0.01115   2.19568
    A9        2.20657  -0.00203   0.00000  -0.01043  -0.01044   2.19613
   A10        1.79383   0.00403   0.00000   0.01460   0.01444   1.80827
   A11        3.35271  -0.00263   0.00000  -0.29148  -0.29132   3.06139
   A12        3.14165  -0.00000   0.00000  -0.00017  -0.00017   3.14147
    D1       -0.00000  -0.00000   0.00000  -0.00000  -0.00000  -0.00000
    D2        3.14158  -0.00000   0.00000  -0.00001  -0.00001   3.14157
    D3       -3.14159  -0.00000   0.00000  -0.00000  -0.00000   3.14159
    D4       -0.00001  -0.00000   0.00000  -0.00001  -0.00001  -0.00002
    D5       -0.00004  -0.00000   0.00000  -0.00002  -0.00002  -0.00006
    D6        3.14156  -0.00000   0.00000  -0.00002  -0.00002   3.14154
    D7       -1.86375   0.00098   0.00000   0.06496   0.06527  -1.79848
    D8        1.86577  -0.00098   0.00000  -0.06517  -0.06548   1.80029
    D9       -2.75016   0.00109   0.00000   0.01806   0.01840  -2.73175
         Item               Value     Threshold  Converged?
 Maximum Force            0.023205     0.000450     NO 
 RMS     Force            0.005613     0.000300     NO 
 Maximum Displacement     0.410695     0.001800     NO 
 RMS     Displacement     0.191437     0.001200     NO 
 Predicted change in Energy=-1.926014D-03
 GradGradGradGradGradGradGradGradGradGradGradGradGradGradGradGradGradGrad

                          Input orientation:                          
 ---------------------------------------------------------------------
 Center     Atomic      Atomic             Coordinates (Angstroms)
 Number     Number       Type             X           Y           Z
 ---------------------------------------------------------------------
      1          6           0       -0.294031    1.228742    0.426768
      2          6           0       -0.766745   -0.020430    0.254092
      3          1           0        0.143355    1.573284    1.363572
      4          8           0       -0.290150    2.222283   -0.513593
      5          1           0       -0.722638   -0.739391    1.070446
      6          1           0       -1.200388   -0.343406   -0.692466
      7          1           0       -0.689502    1.884118   -1.346511
      8          8           0       -1.416418    1.161515   -2.759412
      9          1           0       -0.943403    0.865438   -3.551773
     10          1           0       -2.317655    1.320966   -3.078144
 ---------------------------------------------------------------------
                    Distance matrix (angstroms):
                    1          2          3          4          5
     1  C    0.000000
     2  C    1.346739   0.000000
     3  H    1.089779   2.144564   0.000000
     4  O    1.367999   2.417902   2.032948   0.000000
     5  H    2.114609   1.088708   2.486832   3.386406   0.000000
     6  H    2.132092   1.090106   3.115548   2.728239   1.868933
     7  H    1.931434   2.489016   2.852161   0.983662   3.567294
     8  O    3.378760   3.301556   4.427352   2.727162   4.331581
     9  H    4.047526   3.911595   5.083572   3.390915   4.897869
    10  H    4.048206   3.912603   5.084199   3.391176   4.898975
                    6          7          8          9         10
     6  H    0.000000
     7  H    2.377108   0.000000
     8  O    2.565876   1.745523   0.000000
     9  H    3.114960   2.442407   0.969145   0.000000
    10  H    3.116068   2.442658   0.969145   1.523286   0.000000
 Stoichiometry    C2H6O2
 Framework group  C1[X(C2H6O2)]
 Deg. of freedom    24
 Full point group                 C1      NOp   1
 Largest Abelian subgroup         C1      NOp   1
 Largest concise Abelian subgroup C1      NOp   1
                         Standard orientation:                         
 ---------------------------------------------------------------------
 Center     Atomic      Atomic             Coordinates (Angstroms)
 Number     Number       Type             X           Y           Z
 ---------------------------------------------------------------------
      1          6           0        1.323856   -0.239053   -0.000002
      2          6           0        1.154975    1.097055   -0.000041
      3          1           0        2.305198   -0.712956    0.000003
      4          8           0        0.325223   -1.174014    0.000034
      5          1           0        2.020464    1.757521   -0.000067
      6          1           0        0.163154    1.549407   -0.000065
      7          1           0       -0.546956   -0.719158    0.000080
      8          8           0       -2.025013    0.209389   -0.000050
      9          1           0       -2.607792    0.347613    0.761858
     10          1           0       -2.608734    0.346560   -0.761427
 ---------------------------------------------------------------------
 Rotational constants (GHZ):          11.0480870           3.9182799           2.9316907
 Standard basis: Aug-CC-pVDZ (5D, 7F)
 There are   154 symmetry adapted cartesian basis functions of A   symmetry.
 There are   146 symmetry adapted basis functions of A   symmetry.
   146 basis functions,   238 primitive gaussians,   154 cartesian basis functions
    17 alpha electrons       17 beta electrons
       nuclear repulsion energy       119.3700677624 Hartrees.
 NAtoms=   10 NActive=   10 NUniq=   10 SFac= 1.00D+00 NAtFMM=   60 NAOKFM=F Big=F
 Integral buffers will be    131072 words long.
 Raffenetti 1 integral format.
 Two-electron integral symmetry is turned on.
 One-electron integrals computed using PRISM.
 NBasis=   146 RedAO= T EigKep=  5.42D-05  NBF=   146
 NBsUse=   146 1.00D-06 EigRej= -1.00D+00 NBFU=   146
 Initial guess from the checkpoint file:  "/scr/Gau-51543.chk"
 B after Tr=    -0.000000   -0.000000   -0.000000
         Rot=    0.999523   -0.000016   -0.000006   -0.030877 Ang=  -3.54 deg.
 ExpMin= 2.97D-02 ExpMax= 1.17D+04 ExpMxC= 4.01D+02 IAcc=3 IRadAn=         5 AccDes= 0.00D+00
 Harris functional with IExCor=  205 and IRadAn=       5 diagonalized for initial guess.
 HarFok:  IExCor=  205 AccDes= 0.00D+00 IRadAn=         5 IDoV= 1 UseB2=F ITyADJ=14
 ICtDFT=  3500011 ScaDFX=  1.000000  1.000000  1.000000  1.000000
 FoFCou: FMM=F IPFlag=           0 FMFlag=      100000 FMFlg1=           0
         NFxFlg=           0 DoJE=T BraDBF=F KetDBF=T FulRan=T
         wScrn=  0.000000 ICntrl=       500 IOpCl=  0 I1Cent=   200000004 NGrid=           0
         NMat0=    1 NMatS0=      1 NMatT0=    0 NMatD0=    1 NMtDS0=    0 NMtDT0=    0
 Petite list used in FoFCou.
 Keep R1 ints in memory in canonical form, NReq=66253269.
 Requested convergence on RMS density matrix=1.00D-08 within 128 cycles.
 Requested convergence on MAX density matrix=1.00D-06.
 Requested convergence on             energy=1.00D-06.
 No special actions if energy rises.
 SCF Done:  E(RHF) =  -228.963501291     A.U. after   11 cycles
            NFock= 11  Conv=0.80D-08     -V/T= 2.0019
 ExpMin= 2.97D-02 ExpMax= 1.17D+04 ExpMxC= 4.01D+02 IAcc=3 IRadAn=         5 AccDes= 0.00D+00
 HarFok:  IExCor=  205 AccDes= 0.00D+00 IRadAn=         5 IDoV=-2 UseB2=F ITyADJ=14
 ICtDFT= 12500011 ScaDFX=  1.000000  1.000000  1.000000  1.000000
 Range of M.O.s used for correlation:     5   146
 NBasis=   146 NAE=    17 NBE=    17 NFC=     4 NFV=     0
 NROrb=    142 NOA=    13 NOB=    13 NVA=   129 NVB=   129

 **** Warning!!: The largest alpha MO coefficient is  0.38795694D+02

 Fully direct method using O(ONN) memory.
 JobTyp=1 Pass  1:  I=   5 to  17 NPSUse= 40 ParTrn=T ParDer=T DoDerP=T.
 Spin components of T(2) and E(2):
     alpha-alpha T2 =       0.2805608941D-01 E2=     -0.8937497306D-01
     alpha-beta  T2 =       0.1626770164D+00 E2=     -0.5291591973D+00
     beta-beta   T2 =       0.2805608941D-01 E2=     -0.8937497306D-01
 ANorm=    0.1103987860D+01
 E2 =    -0.7079091434D+00 EUMP2 =    -0.22967141043492D+03
          IDoAtm=1111111111
          Differentiating once with respect to electric field.
                with respect to dipole field.
          Differentiating once with respect to nuclear coordinates.
 Keep R1 ints in memory in canonical form, NReq=66261676.
          There are     1 degrees of freedom in the 1st order CPHF.  IDoFFX=0 NUNeed=     1.
 LinEq1:  Iter=  0 NonCon=     1 RMS=4.57D-03 Max=7.42D-02 NDo=     1
 AX will form     1 AO Fock derivatives at one time.
 LinEq1:  Iter=  1 NonCon=     1 RMS=1.11D-03 Max=8.77D-03 NDo=     1
 LinEq1:  Iter=  2 NonCon=     1 RMS=3.93D-04 Max=4.96D-03 NDo=     1
 LinEq1:  Iter=  3 NonCon=     1 RMS=9.58D-05 Max=1.10D-03 NDo=     1
 LinEq1:  Iter=  4 NonCon=     1 RMS=3.66D-05 Max=4.33D-04 NDo=     1
 LinEq1:  Iter=  5 NonCon=     1 RMS=1.00D-05 Max=1.47D-04 NDo=     1
 LinEq1:  Iter=  6 NonCon=     1 RMS=3.11D-06 Max=2.70D-05 NDo=     1
 LinEq1:  Iter=  7 NonCon=     1 RMS=7.50D-07 Max=9.10D-06 NDo=     1
 LinEq1:  Iter=  8 NonCon=     1 RMS=2.30D-07 Max=2.14D-06 NDo=     1
 LinEq1:  Iter=  9 NonCon=     1 RMS=7.07D-08 Max=5.55D-07 NDo=     1
 LinEq1:  Iter= 10 NonCon=     1 RMS=1.55D-08 Max=1.24D-07 NDo=     1
 LinEq1:  Iter= 11 NonCon=     1 RMS=3.66D-09 Max=3.87D-08 NDo=     1
 LinEq1:  Iter= 12 NonCon=     1 RMS=7.38D-10 Max=9.61D-09 NDo=     1
 LinEq1:  Iter= 13 NonCon=     1 RMS=1.21D-10 Max=1.16D-09 NDo=     1
 LinEq1:  Iter= 14 NonCon=     0 RMS=2.41D-11 Max=2.38D-10 NDo=     1
 Linear equations converged to 1.000D-10 1.000D-09 after    14 iterations.
 End of Minotr F.D. properties file   721 does not exist.
 End of Minotr F.D. properties file   722 does not exist.
 End of Minotr F.D. properties file   788 does not exist.
 Calling FoFJK, ICntrl=  10002127 FMM=F ISym2X=0 I1Cent= 0 IOpClX= 0 NMat=1 NMatS=1 NMatT=0.
 ***** Axes restored to original set *****
 -------------------------------------------------------------------
 Center     Atomic                   Forces (Hartrees/Bohr)
 Number     Number              X              Y              Z
 -------------------------------------------------------------------
      1        6           0.000138226    0.005229533   -0.004608300
      2        6          -0.002312486   -0.007768763    0.000740904
      3        1           0.000831508   -0.000113849    0.002518303
      4        8          -0.000059094    0.001771968   -0.001877544
      5        1           0.000877202    0.000549909    0.002013407
      6        1          -0.000219797    0.000306227   -0.000925520
      7        1           0.002664688    0.001022823    0.006752076
      8        8          -0.004507787   -0.002853898   -0.010335745
      9        1           0.000769915    0.001101631    0.003040087
     10        1           0.001817625    0.000754419    0.002682333
 -------------------------------------------------------------------
 Cartesian Forces:  Max     0.010335745 RMS     0.003395286

 GradGradGradGradGradGradGradGradGradGradGradGradGradGradGradGradGradGrad
 Berny optimization.
 Using GEDIIS/GDIIS optimizer.
 FormGI is forming the generalized inverse of G from B-inverse, IUseBI=4.
 Internal  Forces:  Max     0.006758284 RMS     0.002673611
 Search for a local minimum.
 Step number   2 out of a maximum of   40
 All quantities printed in internal units (Hartrees-Bohrs-Radians)
 Mixed Optimization -- RFO/linear search
 Update second derivatives using D2CorX and points    1    2
 DE= -1.05D-03 DEPred=-1.93D-03 R= 5.48D-01
 TightC=F SS=  1.41D+00  RLast= 3.14D-01 DXNew= 5.0454D-01 9.4252D-01
 Trust test= 5.48D-01 RLast= 3.14D-01 DXMaxT set to 5.05D-01
 ITU=  1  0
 Use linear search instead of GDIIS.
     Eigenvalues ---    0.00230   0.00230   0.01216   0.01730   0.02151
     Eigenvalues ---    0.02736   0.02972   0.02972   0.04746   0.12941
     Eigenvalues ---    0.15642   0.16000   0.16000   0.16000   0.16465
     Eigenvalues ---    0.18981   0.34168   0.35466   0.35620   0.47567
     Eigenvalues ---    0.50765   0.52036   0.52768   0.54891
 RFO step:  Lambda=-4.73829609D-03 EMin= 2.29999935D-03
 Quartic linear search produced a step of -0.18158.
 Iteration  1 RMS(Cart)=  0.24798175 RMS(Int)=  0.03041828
 Iteration  2 RMS(Cart)=  0.12107149 RMS(Int)=  0.00479365
 Iteration  3 RMS(Cart)=  0.00719321 RMS(Int)=  0.00243011
 Iteration  4 RMS(Cart)=  0.00000714 RMS(Int)=  0.00243011
 Iteration  5 RMS(Cart)=  0.00000003 RMS(Int)=  0.00243011
 Variable       Old X    -DE/DX   Delta X   Delta X   Delta X     New X
                                 (Linear)    (Quad)   (Total)
    R1        2.54497   0.00676  -0.00463   0.08491   0.08028   2.62525
    R2        2.05938   0.00246  -0.00237   0.04415   0.04178   2.10116
    R3        2.58514   0.00113  -0.00092   0.01681   0.01589   2.60103
    R4        2.05736   0.00118  -0.00139   0.02519   0.02380   2.08117
    R5        2.06000   0.00080  -0.00203   0.03456   0.03252   2.09252
    R6        1.85885  -0.00211   0.00113  -0.02201  -0.02060   1.83825
    R7        3.29856   0.00494  -0.00859   0.19118   0.18245   3.48101
    R8        1.83142  -0.00245   0.00132  -0.02548  -0.02416   1.80726
    R9        1.83142  -0.00245   0.00132  -0.02549  -0.02416   1.80725
    A1        2.14641  -0.00402   0.00346  -0.07283  -0.06937   2.07704
    A2        2.19755   0.00600  -0.00457   0.09715   0.09258   2.29012
    A3        1.93923  -0.00198   0.00111  -0.02432  -0.02321   1.91602
    A4        2.09691  -0.00224   0.00086  -0.02601  -0.02516   2.07175
    A5        2.12443   0.00050   0.00023  -0.00074  -0.00052   2.12391
    A6        2.06185   0.00174  -0.00108   0.02675   0.02567   2.08752
    A7        1.90840   0.00390  -0.00005   0.02258   0.02254   1.93093
    A8        2.19568  -0.00134   0.00203  -0.03481  -0.03392   2.16176
    A9        2.19613  -0.00144   0.00190  -0.03369  -0.03063   2.16550
   A10        1.80827   0.00298  -0.00262   0.06303   0.05720   1.86547
   A11        3.06139   0.00501   0.05290   0.27711   0.33297   3.39437
   A12        3.14147   0.00001   0.00003   0.00055   0.00058   3.14206
    D1       -0.00000  -0.00000   0.00000  -0.00002  -0.00001  -0.00002
    D2        3.14157  -0.00000   0.00000  -0.00007  -0.00007   3.14151
    D3        3.14159   0.00000   0.00000  -0.00000  -0.00000   3.14159
    D4       -0.00002  -0.00000   0.00000  -0.00006  -0.00005  -0.00007
    D5       -0.00006  -0.00000   0.00000  -0.00011  -0.00010  -0.00016
    D6        3.14154  -0.00000   0.00000  -0.00010  -0.00009   3.14145
    D7       -1.79848  -0.00071  -0.01185  -0.07354  -0.07831  -1.87678
    D8        1.80029   0.00071   0.01189   0.07296   0.07777   1.87806
    D9       -2.73175  -0.00030  -0.00334   0.01669   0.02076  -2.71100
         Item               Value     Threshold  Converged?
 Maximum Force            0.006758     0.000450     NO 
 RMS     Force            0.002674     0.000300     NO 
 Maximum Displacement     0.758021     0.001800     NO 
 RMS     Displacement     0.358553     0.001200     NO 
 Predicted change in Energy=-2.917732D-03
 GradGradGradGradGradGradGradGradGradGradGradGradGradGradGradGradGradGrad

                          Input orientation:                          
 ---------------------------------------------------------------------
 Center     Atomic      Atomic             Coordinates (Angstroms)
 Number     Number       Type             X           Y           Z
 ---------------------------------------------------------------------
      1          6           0       -0.309370    1.172703    0.435199
      2          6           0       -0.717914   -0.152211    0.522561
      3          1           0        0.156775    1.652834    1.323159
      4          8           0       -0.370199    2.073881   -0.603393
      5          1           0       -0.567888   -0.690485    1.471574
      6          1           0       -1.187094   -0.673972   -0.334051
      7          1           0       -0.776346    1.666182   -1.387667
      8          8           0       -1.469502    1.313403   -3.057490
      9          1           0       -0.934388    1.166514   -3.836400
     10          1           0       -2.321650    1.624273   -3.360513
 ---------------------------------------------------------------------
                    Distance matrix (angstroms):
                    1          2          3          4          5
     1  C    0.000000
     2  C    1.389221   0.000000
     3  H    1.111886   2.159681   0.000000
     4  O    1.376407   2.518762   2.041221   0.000000
     5  H    2.147643   1.101305   2.457297   3.462122   0.000000
     6  H    2.184572   1.107316   3.156954   2.879334   1.908919
     7  H    1.945361   2.637980   2.866962   0.972759   3.711144
     8  O    3.683012   3.940770   4.685090   2.794528   5.033974
     9  H    4.317087   4.559214   5.296054   3.404990   5.635366
    10  H    4.319794   4.561373   5.299074   3.407642   5.637628
                    6          7          8          9         10
     6  H    0.000000
     7  H    2.599066   0.000000
     8  O    3.383272   1.842071   0.000000
     9  H    3.964555   2.504184   0.956360   0.000000
    10  H    3.965933   2.506360   0.956358   1.536395   0.000000
 Stoichiometry    C2H6O2
 Framework group  C1[X(C2H6O2)]
 Deg. of freedom    24
 Full point group                 C1      NOp   1
 Largest Abelian subgroup         C1      NOp   1
 Largest concise Abelian subgroup C1      NOp   1
                         Standard orientation:                         
 ---------------------------------------------------------------------
 Center     Atomic      Atomic             Coordinates (Angstroms)
 Number     Number       Type             X           Y           Z
 ---------------------------------------------------------------------
      1          6           0        1.339099   -0.375837    0.000106
      2          6           0        1.607986    0.987114   -0.000018
      3          1           0        2.188780   -1.093006    0.000533
      4          8           0        0.147749   -1.065170   -0.000232
      5          1           0        2.658073    1.319061    0.000329
      6          1           0        0.796189    1.740198   -0.000519
      7          1           0       -0.604890   -0.448894   -0.000474
      8          8           0       -2.276695    0.324600   -0.000073
      9          1           0       -2.843138    0.368882    0.769216
     10          1           0       -2.845953    0.370648   -0.767175
 ---------------------------------------------------------------------
 Rotational constants (GHZ):          12.3823006           3.0398069           2.4690054
 Standard basis: Aug-CC-pVDZ (5D, 7F)
 There are   154 symmetry adapted cartesian basis functions of A   symmetry.
 There are   146 symmetry adapted basis functions of A   symmetry.
   146 basis functions,   238 primitive gaussians,   154 cartesian basis functions
    17 alpha electrons       17 beta electrons
       nuclear repulsion energy       114.7837993589 Hartrees.
 NAtoms=   10 NActive=   10 NUniq=   10 SFac= 1.00D+00 NAtFMM=   60 NAOKFM=F Big=F
 Integral buffers will be    131072 words long.
 Raffenetti 1 integral format.
 Two-electron integral symmetry is turned on.
 One-electron integrals computed using PRISM.
 NBasis=   146 RedAO= T EigKep=  6.94D-05  NBF=   146
 NBsUse=   146 1.00D-06 EigRej= -1.00D+00 NBFU=   146
 Initial guess from the checkpoint file:  "/scr/Gau-51543.chk"
 B after Tr=     0.000000   -0.000000    0.000000
         Rot=    0.998565   -0.000101   -0.000014    0.053557 Ang=  -6.14 deg.
 ExpMin= 2.97D-02 ExpMax= 1.17D+04 ExpMxC= 4.01D+02 IAcc=3 IRadAn=         5 AccDes= 0.00D+00
 Harris functional with IExCor=  205 and IRadAn=       5 diagonalized for initial guess.
 HarFok:  IExCor=  205 AccDes= 0.00D+00 IRadAn=         5 IDoV= 1 UseB2=F ITyADJ=14
 ICtDFT=  3500011 ScaDFX=  1.000000  1.000000  1.000000  1.000000
 FoFCou: FMM=F IPFlag=           0 FMFlag=      100000 FMFlg1=           0
         NFxFlg=           0 DoJE=T BraDBF=F KetDBF=T FulRan=T
         wScrn=  0.000000 ICntrl=       500 IOpCl=  0 I1Cent=   200000004 NGrid=           0
         NMat0=    1 NMatS0=      1 NMatT0=    0 NMatD0=    1 NMtDS0=    0 NMtDT0=    0
 Petite list used in FoFCou.
 Keep R1 ints in memory in canonical form, NReq=66246557.
 Requested convergence on RMS density matrix=1.00D-08 within 128 cycles.
 Requested convergence on MAX density matrix=1.00D-06.
 Requested convergence on             energy=1.00D-06.
 No special actions if energy rises.
 SCF Done:  E(RHF) =  -228.960027393     A.U. after   14 cycles
            NFock= 14  Conv=0.19D-08     -V/T= 2.0028
 ExpMin= 2.97D-02 ExpMax= 1.17D+04 ExpMxC= 4.01D+02 IAcc=3 IRadAn=         5 AccDes= 0.00D+00
 HarFok:  IExCor=  205 AccDes= 0.00D+00 IRadAn=         5 IDoV=-2 UseB2=F ITyADJ=14
 ICtDFT= 12500011 ScaDFX=  1.000000  1.000000  1.000000  1.000000
 Range of M.O.s used for correlation:     5   146
 NBasis=   146 NAE=    17 NBE=    17 NFC=     4 NFV=     0
 NROrb=    142 NOA=    13 NOB=    13 NVA=   129 NVB=   129

 **** Warning!!: The largest alpha MO coefficient is  0.31852024D+02

 Fully direct method using O(ONN) memory.
 JobTyp=1 Pass  1:  I=   5 to  17 NPSUse= 40 ParTrn=T ParDer=T DoDerP=T.
 Spin components of T(2) and E(2):
     alpha-alpha T2 =       0.2829183875D-01 E2=     -0.8916536633D-01
     alpha-beta  T2 =       0.1653148742D+00 E2=     -0.5305184957D+00
     beta-beta   T2 =       0.2829183875D-01 E2=     -0.8916536633D-01
 ANorm=    0.1105395202D+01
 E2 =    -0.7088492284D+00 EUMP2 =    -0.22966887662182D+03
          IDoAtm=1111111111
          Differentiating once with respect to electric field.
                with respect to dipole field.
          Differentiating once with respect to nuclear coordinates.
 Keep R1 ints in memory in canonical form, NReq=66255632.
          There are     1 degrees of freedom in the 1st order CPHF.  IDoFFX=0 NUNeed=     1.
 LinEq1:  Iter=  0 NonCon=     1 RMS=4.65D-03 Max=6.64D-02 NDo=     1
 AX will form     1 AO Fock derivatives at one time.
 LinEq1:  Iter=  1 NonCon=     1 RMS=1.16D-03 Max=1.26D-02 NDo=     1
 LinEq1:  Iter=  2 NonCon=     1 RMS=4.13D-04 Max=5.78D-03 NDo=     1
 LinEq1:  Iter=  3 NonCon=     1 RMS=1.09D-04 Max=1.26D-03 NDo=     1
 LinEq1:  Iter=  4 NonCon=     1 RMS=3.92D-05 Max=3.98D-04 NDo=     1
 LinEq1:  Iter=  5 NonCon=     1 RMS=1.26D-05 Max=2.36D-04 NDo=     1
 LinEq1:  Iter=  6 NonCon=     1 RMS=3.80D-06 Max=4.00D-05 NDo=     1
 LinEq1:  Iter=  7 NonCon=     1 RMS=9.36D-07 Max=9.65D-06 NDo=     1
 LinEq1:  Iter=  8 NonCon=     1 RMS=2.25D-07 Max=2.66D-06 NDo=     1
 LinEq1:  Iter=  9 NonCon=     1 RMS=8.35D-08 Max=6.00D-07 NDo=     1
 LinEq1:  Iter= 10 NonCon=     1 RMS=2.70D-08 Max=2.56D-07 NDo=     1
 LinEq1:  Iter= 11 NonCon=     1 RMS=6.31D-09 Max=5.40D-08 NDo=     1
 LinEq1:  Iter= 12 NonCon=     1 RMS=1.06D-09 Max=8.00D-09 NDo=     1
 LinEq1:  Iter= 13 NonCon=     1 RMS=1.41D-10 Max=8.76D-10 NDo=     1
 LinEq1:  Iter= 14 NonCon=     0 RMS=2.71D-11 Max=2.21D-10 NDo=     1
 Linear equations converged to 1.000D-10 1.000D-09 after    14 iterations.
 End of Minotr F.D. properties file   721 does not exist.
 End of Minotr F.D. properties file   722 does not exist.
 End of Minotr F.D. properties file   788 does not exist.
 Calling FoFJK, ICntrl=  10002127 FMM=F ISym2X=0 I1Cent= 0 IOpClX= 0 NMat=1 NMatS=1 NMatT=0.
 ***** Axes restored to original set *****
 -------------------------------------------------------------------
 Center     Atomic                   Forces (Hartrees/Bohr)
 Number     Number              X              Y              Z
 -------------------------------------------------------------------
      1        6          -0.000856252   -0.018530901    0.015264563
      2        6           0.004870227    0.028120021   -0.012833142
      3        1          -0.004780205   -0.004731327   -0.009291451
      4        8          -0.000060663   -0.010795129    0.010142970
      5        1          -0.000748402    0.004919151   -0.006872151
      6        1           0.003957507    0.003963664    0.007636687
      7        1          -0.001855876   -0.001758962   -0.003630254
      8        8           0.003089323   -0.003770778    0.012602344
      9        1           0.003303578   -0.000396707   -0.008270627
     10        1          -0.006919238    0.002980966   -0.004748939
 -------------------------------------------------------------------
 Cartesian Forces:  Max     0.028120021 RMS     0.009000050

 GradGradGradGradGradGradGradGradGradGradGradGradGradGradGradGradGradGrad
 Berny optimization.
 Using GEDIIS/GDIIS optimizer.
 FormGI is forming the generalized inverse of G from B-inverse, IUseBI=4.
 Internal  Forces:  Max     0.038424872 RMS     0.009193457
 Search for a local minimum.
 Step number   3 out of a maximum of   40
 All quantities printed in internal units (Hartrees-Bohrs-Radians)
 Mixed Optimization -- RFO/linear search
 Update second derivatives using D2CorX and points    1    3    2
 DE=  2.53D-03 DEPred=-2.92D-03 R=-8.68D-01
 Trust test=-8.68D-01 RLast= 4.35D-01 DXMaxT set to 2.52D-01
 ITU= -1  1  0
 Use linear search instead of GDIIS.
     Eigenvalues ---    0.00230   0.00230   0.01455   0.02151   0.02352
     Eigenvalues ---    0.02724   0.02972   0.02972   0.05353   0.14409
     Eigenvalues ---    0.15573   0.16000   0.16000   0.16050   0.16657
     Eigenvalues ---    0.23018   0.35464   0.35578   0.36502   0.49812
     Eigenvalues ---    0.51935   0.52768   0.53256   0.65824
 RFO step:  Lambda=-2.76501992D-04 EMin= 2.29999772D-03
 Quartic linear search produced a step of -0.71337.
 Iteration  1 RMS(Cart)=  0.21356950 RMS(Int)=  0.01078723
 Iteration  2 RMS(Cart)=  0.02132870 RMS(Int)=  0.00076877
 Iteration  3 RMS(Cart)=  0.00008976 RMS(Int)=  0.00076768
 Iteration  4 RMS(Cart)=  0.00000003 RMS(Int)=  0.00076768
 Variable       Old X    -DE/DX   Delta X   Delta X   Delta X     New X
                                 (Linear)    (Quad)   (Total)
    R1        2.62525  -0.03842  -0.05727  -0.00699  -0.06426   2.56099
    R2        2.10116  -0.01147  -0.02980  -0.00280  -0.03260   2.06856
    R3        2.60103  -0.01349  -0.01133  -0.00520  -0.01654   2.58449
    R4        2.08117  -0.00843  -0.01698  -0.00353  -0.02051   2.06065
    R5        2.09252  -0.00945  -0.02320  -0.00458  -0.02779   2.06474
    R6        1.83825   0.00548   0.01470  -0.00063   0.01406   1.85231
    R7        3.48101   0.00081  -0.13015   0.04332  -0.08682   3.39419
    R8        1.80726   0.00865   0.01723   0.00045   0.01769   1.82495
    R9        1.80725   0.00864   0.01724   0.00045   0.01769   1.82494
    A1        2.07704   0.00800   0.04949  -0.00446   0.04502   2.12206
    A2        2.29012  -0.01546  -0.06604   0.00059  -0.06545   2.22467
    A3        1.91602   0.00746   0.01656   0.00388   0.02043   1.93645
    A4        2.07175  -0.00177   0.01794  -0.01260   0.00534   2.07709
    A5        2.12391   0.00150   0.00037   0.00462   0.00498   2.12890
    A6        2.08752   0.00027  -0.01831   0.00799  -0.01033   2.07720
    A7        1.93093  -0.00453  -0.01608   0.00775  -0.00833   1.92261
    A8        2.16176   0.00100   0.02420  -0.00414   0.02052   2.18228
    A9        2.16550   0.00119   0.02185  -0.00395   0.01760   2.18310
   A10        1.86547  -0.00257  -0.04080   0.00896  -0.03101   1.83446
   A11        3.39437  -0.00329  -0.23753   0.01855  -0.22002   3.17434
   A12        3.14206   0.00001  -0.00042   0.00122   0.00080   3.14286
    D1       -0.00002   0.00000   0.00001  -0.00000   0.00001  -0.00001
    D2        3.14151   0.00000   0.00005  -0.00001   0.00004   3.14154
    D3        3.14159   0.00000   0.00000   0.00001   0.00001  -3.14159
    D4       -0.00007   0.00000   0.00004   0.00000   0.00004  -0.00003
    D5       -0.00016   0.00000   0.00007  -0.00003   0.00005  -0.00011
    D6        3.14145   0.00000   0.00007  -0.00002   0.00005   3.14150
    D7       -1.87678  -0.00036   0.05586  -0.00052   0.05316  -1.82363
    D8        1.87806   0.00036  -0.05548   0.00086  -0.05243   1.82562
    D9       -2.71100   0.00068  -0.01481  -0.00139  -0.01865  -2.72965
         Item               Value     Threshold  Converged?
 Maximum Force            0.038425     0.000450     NO 
 RMS     Force            0.009193     0.000300     NO 
 Maximum Displacement     0.480357     0.001800     NO 
 RMS     Displacement     0.229267     0.001200     NO 
 Predicted change in Energy=-1.813922D-04
 GradGradGradGradGradGradGradGradGradGradGradGradGradGradGradGradGradGrad

                          Input orientation:                          
 ---------------------------------------------------------------------
 Center     Atomic      Atomic             Coordinates (Angstroms)
 Number     Number       Type             X           Y           Z
 ---------------------------------------------------------------------
      1          6           0       -0.295513    1.208632    0.441088
      2          6           0       -0.748854   -0.065219    0.349453
      3          1           0        0.151091    1.593296    1.363476
      4          8           0       -0.313892    2.170160   -0.531336
      5          1           0       -0.665135   -0.720028    1.217380
      6          1           0       -1.195725   -0.455774   -0.567922
      7          1           0       -0.715613    1.813678   -1.351294
      8          8           0       -1.441280    1.212025   -2.880179
      9          1           0       -0.944340    0.969446   -3.671900
     10          1           0       -2.328313    1.426905   -3.195788
 ---------------------------------------------------------------------
                    Distance matrix (angstroms):
                    1          2          3          4          5
     1  C    0.000000
     2  C    1.355216   0.000000
     3  H    1.094633   2.142152   0.000000
     4  O    1.367655   2.441701   2.034525   0.000000
     5  H    2.111629   1.090449   2.457445   3.396257   0.000000
     6  H    2.144464   1.092613   3.121361   2.770288   1.881132
     7  H    1.937833   2.534541   2.858272   0.980199   3.608365
     8  O    3.513347   3.541375   4.548585   2.775985   4.596218
     9  H    4.170714   4.156926   5.190777   3.420866   5.180476
    10  H    4.172144   4.158108   5.192496   3.421933   5.181847
                    6          7          8          9         10
     6  H    0.000000
     7  H    2.448385   0.000000
     8  O    2.861536   1.796126   0.000000
     9  H    3.424781   2.479971   0.965721   0.000000
    10  H    3.425335   2.480434   0.965717   1.533406   0.000000
 Stoichiometry    C2H6O2
 Framework group  C1[X(C2H6O2)]
 Deg. of freedom    24
 Full point group                 C1      NOp   1
 Largest Abelian subgroup         C1      NOp   1
 Largest concise Abelian subgroup C1      NOp   1
                         Standard orientation:                         
 ---------------------------------------------------------------------
 Center     Atomic      Atomic             Coordinates (Angstroms)
 Number     Number       Type             X           Y           Z
 ---------------------------------------------------------------------
      1          6           0        1.340427   -0.291676    0.000269
      2          6           0        1.317350    1.063344   -0.000158
      3          1           0        2.282530   -0.849047    0.001124
      4          8           0        0.269198   -1.141941   -0.000272
      5          1           0        2.261856    1.608310    0.000378
      6          1           0        0.380809    1.626098   -0.001058
      7          1           0       -0.567428   -0.631209   -0.000947
      8          8           0       -2.130291    0.253960    0.000078
      9          1           0       -2.707048    0.359710    0.767401
     10          1           0       -2.708642    0.359974   -0.766005
 ---------------------------------------------------------------------
 Rotational constants (GHZ):          11.4279512           3.5350929           2.7345289
 Standard basis: Aug-CC-pVDZ (5D, 7F)
 There are   154 symmetry adapted cartesian basis functions of A   symmetry.
 There are   146 symmetry adapted basis functions of A   symmetry.
   146 basis functions,   238 primitive gaussians,   154 cartesian basis functions
    17 alpha electrons       17 beta electrons
       nuclear repulsion energy       117.5675991314 Hartrees.
 NAtoms=   10 NActive=   10 NUniq=   10 SFac= 1.00D+00 NAtFMM=   60 NAOKFM=F Big=F
 Integral buffers will be    131072 words long.
 Raffenetti 1 integral format.
 Two-electron integral symmetry is turned on.
 One-electron integrals computed using PRISM.
 NBasis=   146 RedAO= T EigKep=  5.92D-05  NBF=   146
 NBsUse=   146 1.00D-06 EigRej= -1.00D+00 NBFU=   146
 Lowest energy guess from the checkpoint file:  "/scr/Gau-51543.chk"
 B after Tr=    -0.000000   -0.000000    0.000000
         Rot=    0.999806   -0.000046   -0.000003    0.019721 Ang=  -2.26 deg.
 B after Tr=    -0.000000   -0.000000    0.000000
         Rot=    0.999436    0.000075    0.000006   -0.033571 Ang=   3.85 deg.
 Keep R1 ints in memory in canonical form, NReq=66251086.
 Requested convergence on RMS density matrix=1.00D-08 within 128 cycles.
 Requested convergence on MAX density matrix=1.00D-06.
 Requested convergence on             energy=1.00D-06.
 No special actions if energy rises.
 SCF Done:  E(RHF) =  -228.964987778     A.U. after   10 cycles
            NFock= 10  Conv=0.83D-08     -V/T= 2.0022
 ExpMin= 2.97D-02 ExpMax= 1.17D+04 ExpMxC= 4.01D+02 IAcc=3 IRadAn=         5 AccDes= 0.00D+00
 HarFok:  IExCor=  205 AccDes= 0.00D+00 IRadAn=         5 IDoV=-2 UseB2=F ITyADJ=14
 ICtDFT= 12500011 ScaDFX=  1.000000  1.000000  1.000000  1.000000
 Range of M.O.s used for correlation:     5   146
 NBasis=   146 NAE=    17 NBE=    17 NFC=     4 NFV=     0
 NROrb=    142 NOA=    13 NOB=    13 NVA=   129 NVB=   129

 **** Warning!!: The largest alpha MO coefficient is  0.35804813D+02

 Fully direct method using O(ONN) memory.
 JobTyp=1 Pass  1:  I=   5 to  17 NPSUse= 40 ParTrn=T ParDer=T DoDerP=T.
 Spin components of T(2) and E(2):
     alpha-alpha T2 =       0.2803383053D-01 E2=     -0.8915791875D-01
     alpha-beta  T2 =       0.1629871865D+00 E2=     -0.5289335834D+00
     beta-beta   T2 =       0.2803383053D-01 E2=     -0.8915791875D-01
 ANorm=    0.1104108168D+01
 E2 =    -0.7072494209D+00 EUMP2 =    -0.22967223719933D+03
          IDoAtm=1111111111
          Differentiating once with respect to electric field.
                with respect to dipole field.
          Differentiating once with respect to nuclear coordinates.
 Keep R1 ints in memory in canonical form, NReq=66259008.
          There are     1 degrees of freedom in the 1st order CPHF.  IDoFFX=0 NUNeed=     1.
 LinEq1:  Iter=  0 NonCon=     1 RMS=4.57D-03 Max=6.98D-02 NDo=     1
 AX will form     1 AO Fock derivatives at one time.
 LinEq1:  Iter=  1 NonCon=     1 RMS=1.11D-03 Max=1.00D-02 NDo=     1
 LinEq1:  Iter=  2 NonCon=     1 RMS=3.94D-04 Max=5.23D-03 NDo=     1
 LinEq1:  Iter=  3 NonCon=     1 RMS=9.81D-05 Max=1.11D-03 NDo=     1
 LinEq1:  Iter=  4 NonCon=     1 RMS=3.67D-05 Max=3.92D-04 NDo=     1
 LinEq1:  Iter=  5 NonCon=     1 RMS=1.04D-05 Max=1.71D-04 NDo=     1
 LinEq1:  Iter=  6 NonCon=     1 RMS=3.18D-06 Max=2.85D-05 NDo=     1
 LinEq1:  Iter=  7 NonCon=     1 RMS=7.55D-07 Max=9.16D-06 NDo=     1
 LinEq1:  Iter=  8 NonCon=     1 RMS=2.34D-07 Max=2.64D-06 NDo=     1
 LinEq1:  Iter=  9 NonCon=     1 RMS=7.63D-08 Max=5.68D-07 NDo=     1
 LinEq1:  Iter= 10 NonCon=     1 RMS=2.03D-08 Max=2.43D-07 NDo=     1
 LinEq1:  Iter= 11 NonCon=     1 RMS=5.30D-09 Max=5.00D-08 NDo=     1
 LinEq1:  Iter= 12 NonCon=     1 RMS=9.37D-10 Max=7.25D-09 NDo=     1
 LinEq1:  Iter= 13 NonCon=     1 RMS=1.28D-10 Max=7.36D-10 NDo=     1
 LinEq1:  Iter= 14 NonCon=     0 RMS=2.42D-11 Max=1.95D-10 NDo=     1
 Linear equations converged to 1.000D-10 1.000D-09 after    14 iterations.
 End of Minotr F.D. properties file   721 does not exist.
 End of Minotr F.D. properties file   722 does not exist.
 End of Minotr F.D. properties file   788 does not exist.
 Calling FoFJK, ICntrl=  10002127 FMM=F ISym2X=0 I1Cent= 0 IOpClX= 0 NMat=1 NMatS=1 NMatT=0.
 ***** Axes restored to original set *****
 -------------------------------------------------------------------
 Center     Atomic                   Forces (Hartrees/Bohr)
 Number     Number              X              Y              Z
 -------------------------------------------------------------------
      1        6          -0.000504486   -0.001362703   -0.000148707
      2        6           0.000500646    0.002499440   -0.000939282
      3        1          -0.000303592   -0.000324964   -0.000570080
      4        8          -0.000160831   -0.000294857   -0.000158584
      5        1           0.000122075    0.000448178   -0.000075620
      6        1           0.000109319    0.000258030    0.000063712
      7        1           0.001114782   -0.000331176    0.003499813
      8        8          -0.001132122   -0.001660852   -0.001672832
      9        1           0.000156996    0.000375334   -0.000007420
     10        1           0.000097212    0.000393571    0.000008999
 -------------------------------------------------------------------
 Cartesian Forces:  Max     0.003499813 RMS     0.001020589

 GradGradGradGradGradGradGradGradGradGradGradGradGradGradGradGradGradGrad
 Berny optimization.
 Using GEDIIS/GDIIS optimizer.
 FormGI is forming the generalized inverse of G from B-inverse, IUseBI=4.
 Internal  Forces:  Max     0.003327380 RMS     0.001143851
 Search for a local minimum.
 Step number   4 out of a maximum of   40
 All quantities printed in internal units (Hartrees-Bohrs-Radians)
 Mixed Optimization -- RFO/linear search
 Update second derivatives using D2CorX and points    1    3    2    4
 DE= -8.27D-04 DEPred=-1.81D-04 R= 4.56D+00
 TightC=F SS=  1.41D+00  RLast= 1.64D-01 DXNew= 4.2426D-01 4.9208D-01
 Trust test= 4.56D+00 RLast= 1.64D-01 DXMaxT set to 4.24D-01
 ITU=  1 -1  1  0
 Use linear search instead of GDIIS.
     Eigenvalues ---    0.00230   0.00230   0.01368   0.02151   0.02434
     Eigenvalues ---    0.02731   0.02972   0.02972   0.04092   0.14211
     Eigenvalues ---    0.15613   0.16000   0.16005   0.16041   0.18211
     Eigenvalues ---    0.25508   0.35465   0.35638   0.36714   0.49500
     Eigenvalues ---    0.51677   0.52768   0.53381   0.69671
 RFO step:  Lambda=-2.34560016D-04 EMin= 2.29999674D-03
 Quartic linear search produced a step of  0.04803.
 Iteration  1 RMS(Cart)=  0.01370316 RMS(Int)=  0.00012204
 Iteration  2 RMS(Cart)=  0.00011244 RMS(Int)=  0.00007865
 Iteration  3 RMS(Cart)=  0.00000002 RMS(Int)=  0.00007865
 Variable       Old X    -DE/DX   Delta X   Delta X   Delta X     New X
                                 (Linear)    (Quad)   (Total)
    R1        2.56099  -0.00319   0.00077  -0.00195  -0.00118   2.55980
    R2        2.06856  -0.00072   0.00044  -0.00004   0.00040   2.06896
    R3        2.58449  -0.00226  -0.00003  -0.00437  -0.00441   2.58009
    R4        2.06065  -0.00032   0.00016   0.00009   0.00025   2.06090
    R5        2.06474  -0.00019   0.00023   0.00083   0.00106   2.06580
    R6        1.85231  -0.00118  -0.00031  -0.00398  -0.00430   1.84801
    R7        3.39419   0.00208   0.00459   0.04689   0.05149   3.44567
    R8        1.82495  -0.00001  -0.00031  -0.00144  -0.00176   1.82319
    R9        1.82494  -0.00000  -0.00031  -0.00144  -0.00175   1.82319
    A1        2.12206   0.00091  -0.00117  -0.00010  -0.00127   2.12080
    A2        2.22467  -0.00198   0.00130  -0.00439  -0.00308   2.22159
    A3        1.93645   0.00107  -0.00013   0.00448   0.00435   1.94080
    A4        2.07709  -0.00033  -0.00095  -0.00505  -0.00601   2.07109
    A5        2.12890  -0.00006   0.00021   0.00003   0.00025   2.12914
    A6        2.07720   0.00039   0.00074   0.00502   0.00576   2.08295
    A7        1.92261  -0.00333   0.00068  -0.02085  -0.02017   1.90244
    A8        2.18228  -0.00023  -0.00064  -0.00727  -0.00809   2.17420
    A9        2.18310  -0.00009  -0.00063  -0.00649  -0.00725   2.17585
   A10        1.83446   0.00014   0.00126   0.00168   0.00272   1.83718
   A11        3.17434   0.00003   0.00543   0.01012   0.01563   3.18997
   A12        3.14286  -0.00002   0.00007  -0.00700  -0.00693   3.13593
    D1       -0.00001   0.00000  -0.00000   0.00002   0.00002   0.00001
    D2        3.14154   0.00000  -0.00000   0.00008   0.00007  -3.14157
    D3       -3.14159  -0.00000   0.00000  -0.00002  -0.00002   3.14158
    D4       -0.00003   0.00000  -0.00000   0.00004   0.00004   0.00000
    D5       -0.00011   0.00000  -0.00000   0.00007   0.00006  -0.00005
    D6        3.14150   0.00000  -0.00000   0.00003   0.00003   3.14152
    D7       -1.82363  -0.00023  -0.00121  -0.01873  -0.01975  -1.84338
    D8        1.82562   0.00023   0.00122   0.01898   0.02001   1.84564
    D9       -2.72965   0.00042   0.00010   0.02937   0.02961  -2.70004
         Item               Value     Threshold  Converged?
 Maximum Force            0.003327     0.000450     NO 
 RMS     Force            0.001144     0.000300     NO 
 Maximum Displacement     0.031105     0.001800     NO 
 RMS     Displacement     0.013661     0.001200     NO 
 Predicted change in Energy=-1.122609D-04
 GradGradGradGradGradGradGradGradGradGradGradGradGradGradGradGradGradGrad

                          Input orientation:                          
 ---------------------------------------------------------------------
 Center     Atomic      Atomic             Coordinates (Angstroms)
 Number     Number       Type             X           Y           Z
 ---------------------------------------------------------------------
      1          6           0       -0.293996    1.212343    0.444950
      2          6           0       -0.748157   -0.059769    0.343054
      3          1           0        0.147771    1.589659    1.372936
      4          8           0       -0.307489    2.175434   -0.522719
      5          1           0       -0.667351   -0.715183    1.210965
      6          1           0       -1.190546   -0.444628   -0.579553
      7          1           0       -0.707204    1.805252   -1.334834
      8          8           0       -1.449358    1.196180   -2.884971
      9          1           0       -0.949802    0.965497   -3.677468
     10          1           0       -2.331441    1.428336   -3.199382
 ---------------------------------------------------------------------
                    Distance matrix (angstroms):
                    1          2          3          4          5
     1  C    0.000000
     2  C    1.354590   0.000000
     3  H    1.094844   2.141018   0.000000
     4  O    1.365324   2.437188   2.035658   0.000000
     5  H    2.107494   1.090580   2.450093   3.389812   0.000000
     6  H    2.144519   1.093174   3.121159   2.765456   1.884910
     7  H    1.920914   2.509042   2.847715   0.977925   3.582635
     8  O    3.524697   3.534012   4.564583   2.800542   4.587105
     9  H    4.181548   4.154086   5.205845   3.439324   5.176991
    10  H    4.180788   4.155731   5.203711   3.437886   5.178323
                    6          7          8          9         10
     6  H    0.000000
     7  H    2.421988   0.000000
     8  O    2.841511   1.823372   0.000000
     9  H    3.412255   2.500395   0.964792   0.000000
    10  H    3.416598   2.501350   0.964791   1.533529   0.000000
 Stoichiometry    C2H6O2
 Framework group  C1[X(C2H6O2)]
 Deg. of freedom    24
 Full point group                 C1      NOp   1
 Largest Abelian subgroup         C1      NOp   1
 Largest concise Abelian subgroup C1      NOp   1
                         Standard orientation:                         
 ---------------------------------------------------------------------
 Center     Atomic      Atomic             Coordinates (Angstroms)
 Number     Number       Type             X           Y           Z
 ---------------------------------------------------------------------
      1          6           0        1.346460   -0.282657   -0.001023
      2          6           0        1.299083    1.071103    0.000403
      3          1           0        2.299282   -0.821920   -0.004236
      4          8           0        0.289801   -1.147283    0.001168
      5          1           0        2.237119    1.627383   -0.001730
      6          1           0        0.352243    1.617467    0.003629
      7          1           0       -0.542169   -0.633323    0.004077
      8          8           0       -2.137936    0.248827   -0.000682
      9          1           0       -2.717267    0.336573    0.765803
     10          1           0       -2.717387    0.330789   -0.767715
 ---------------------------------------------------------------------
 Rotational constants (GHZ):          11.3649509           3.5265180           2.7257941
 Standard basis: Aug-CC-pVDZ (5D, 7F)
 There are   154 symmetry adapted cartesian basis functions of A   symmetry.
 There are   146 symmetry adapted basis functions of A   symmetry.
   146 basis functions,   238 primitive gaussians,   154 cartesian basis functions
    17 alpha electrons       17 beta electrons
       nuclear repulsion energy       117.5206015023 Hartrees.
 NAtoms=   10 NActive=   10 NUniq=   10 SFac= 1.00D+00 NAtFMM=   60 NAOKFM=F Big=F
 Integral buffers will be    131072 words long.
 Raffenetti 1 integral format.
 Two-electron integral symmetry is turned on.
 One-electron integrals computed using PRISM.
 NBasis=   146 RedAO= T EigKep=  5.90D-05  NBF=   146
 NBsUse=   146 1.00D-06 EigRej= -1.00D+00 NBFU=   146
 Initial guess from the checkpoint file:  "/scr/Gau-51543.chk"
 B after Tr=     0.000000   -0.000000   -0.000000
         Rot=    0.999991    0.000175    0.000013   -0.004186 Ang=   0.48 deg.
 ExpMin= 2.97D-02 ExpMax= 1.17D+04 ExpMxC= 4.01D+02 IAcc=3 IRadAn=         5 AccDes= 0.00D+00
 Harris functional with IExCor=  205 and IRadAn=       5 diagonalized for initial guess.
 HarFok:  IExCor=  205 AccDes= 0.00D+00 IRadAn=         5 IDoV= 1 UseB2=F ITyADJ=14
 ICtDFT=  3500011 ScaDFX=  1.000000  1.000000  1.000000  1.000000
 FoFCou: FMM=F IPFlag=           0 FMFlag=      100000 FMFlg1=           0
         NFxFlg=           0 DoJE=T BraDBF=F KetDBF=T FulRan=T
         wScrn=  0.000000 ICntrl=       500 IOpCl=  0 I1Cent=   200000004 NGrid=           0
         NMat0=    1 NMatS0=      1 NMatT0=    0 NMatD0=    1 NMtDS0=    0 NMtDT0=    0
 Petite list used in FoFCou.
 Keep R1 ints in memory in canonical form, NReq=66251086.
 Requested convergence on RMS density matrix=1.00D-08 within 128 cycles.
 Requested convergence on MAX density matrix=1.00D-06.
 Requested convergence on             energy=1.00D-06.
 No special actions if energy rises.
 SCF Done:  E(RHF) =  -228.965484507     A.U. after   10 cycles
            NFock= 10  Conv=0.53D-08     -V/T= 2.0021
 ExpMin= 2.97D-02 ExpMax= 1.17D+04 ExpMxC= 4.01D+02 IAcc=3 IRadAn=         5 AccDes= 0.00D+00
 HarFok:  IExCor=  205 AccDes= 0.00D+00 IRadAn=         5 IDoV=-2 UseB2=F ITyADJ=14
 ICtDFT= 12500011 ScaDFX=  1.000000  1.000000  1.000000  1.000000
 Range of M.O.s used for correlation:     5   146
 NBasis=   146 NAE=    17 NBE=    17 NFC=     4 NFV=     0
 NROrb=    142 NOA=    13 NOB=    13 NVA=   129 NVB=   129

 **** Warning!!: The largest alpha MO coefficient is  0.36148836D+02

 Fully direct method using O(ONN) memory.
 JobTyp=1 Pass  1:  I=   5 to  17 NPSUse= 40 ParTrn=T ParDer=T DoDerP=T.
 Spin components of T(2) and E(2):
     alpha-alpha T2 =       0.2799872214D-01 E2=     -0.8910200413D-01
     alpha-beta  T2 =       0.1628194008D+00 E2=     -0.5287008895D+00
     beta-beta   T2 =       0.2799872214D-01 E2=     -0.8910200413D-01
 ANorm=    0.1104000383D+01
 E2 =    -0.7069048978D+00 EUMP2 =    -0.22967238940448D+03
          IDoAtm=1111111111
          Differentiating once with respect to electric field.
                with respect to dipole field.
          Differentiating once with respect to nuclear coordinates.
 Keep R1 ints in memory in canonical form, NReq=66259067.
          There are     1 degrees of freedom in the 1st order CPHF.  IDoFFX=0 NUNeed=     1.
 LinEq1:  Iter=  0 NonCon=     1 RMS=4.56D-03 Max=6.91D-02 NDo=     1
 AX will form     1 AO Fock derivatives at one time.
 LinEq1:  Iter=  1 NonCon=     1 RMS=1.11D-03 Max=9.73D-03 NDo=     1
 LinEq1:  Iter=  2 NonCon=     1 RMS=3.92D-04 Max=5.20D-03 NDo=     1
 LinEq1:  Iter=  3 NonCon=     1 RMS=9.75D-05 Max=1.11D-03 NDo=     1
 LinEq1:  Iter=  4 NonCon=     1 RMS=3.64D-05 Max=3.91D-04 NDo=     1
 LinEq1:  Iter=  5 NonCon=     1 RMS=1.03D-05 Max=1.69D-04 NDo=     1
 LinEq1:  Iter=  6 NonCon=     1 RMS=3.14D-06 Max=2.81D-05 NDo=     1
 LinEq1:  Iter=  7 NonCon=     1 RMS=7.46D-07 Max=8.75D-06 NDo=     1
 LinEq1:  Iter=  8 NonCon=     1 RMS=2.32D-07 Max=2.60D-06 NDo=     1
 LinEq1:  Iter=  9 NonCon=     1 RMS=7.56D-08 Max=5.60D-07 NDo=     1
 LinEq1:  Iter= 10 NonCon=     1 RMS=2.01D-08 Max=2.40D-07 NDo=     1
 LinEq1:  Iter= 11 NonCon=     1 RMS=5.25D-09 Max=5.00D-08 NDo=     1
 LinEq1:  Iter= 12 NonCon=     1 RMS=9.28D-10 Max=7.22D-09 NDo=     1
 LinEq1:  Iter= 13 NonCon=     1 RMS=1.27D-10 Max=7.25D-10 NDo=     1
 LinEq1:  Iter= 14 NonCon=     0 RMS=2.42D-11 Max=1.96D-10 NDo=     1
 Linear equations converged to 1.000D-10 1.000D-09 after    14 iterations.
 End of Minotr F.D. properties file   721 does not exist.
 End of Minotr F.D. properties file   722 does not exist.
 End of Minotr F.D. properties file   788 does not exist.
 Calling FoFJK, ICntrl=  10002127 FMM=F ISym2X=0 I1Cent= 0 IOpClX= 0 NMat=1 NMatS=1 NMatT=0.
 ***** Axes restored to original set *****
 -------------------------------------------------------------------
 Center     Atomic                   Forces (Hartrees/Bohr)
 Number     Number              X              Y              Z
 -------------------------------------------------------------------
      1        6           0.000146301   -0.001931913    0.002272338
      2        6           0.000486287    0.001938768   -0.000468309
      3        1          -0.000331337   -0.000211039   -0.000747384
      4        8          -0.000195109   -0.000076282   -0.000656543
      5        1          -0.000162928    0.000014045   -0.000493229
      6        1           0.000240768    0.000177174    0.000564758
      7        1           0.000357914    0.000801202    0.000550442
      8        8          -0.000293850   -0.001455004    0.000367854
      9        1           0.000329878    0.000213499   -0.000868978
     10        1          -0.000577924    0.000529551   -0.000520950
 -------------------------------------------------------------------
 Cartesian Forces:  Max     0.002272338 RMS     0.000820671

 GradGradGradGradGradGradGradGradGradGradGradGradGradGradGradGradGradGrad
 Berny optimization.
 Using GEDIIS/GDIIS optimizer.
 FormGI is forming the generalized inverse of G from B-inverse, IUseBI=4.
 Internal  Forces:  Max     0.002159581 RMS     0.000666830
 Search for a local minimum.
 Step number   5 out of a maximum of   40
 All quantities printed in internal units (Hartrees-Bohrs-Radians)
 Mixed Optimization -- En-DIIS/RFO-DIIS
 Update second derivatives using D2CorX and points    1    3    2    4    5
 DE= -1.52D-04 DEPred=-1.12D-04 R= 1.36D+00
 TightC=F SS=  1.41D+00  RLast= 7.27D-02 DXNew= 7.1352D-01 2.1818D-01
 Trust test= 1.36D+00 RLast= 7.27D-02 DXMaxT set to 4.24D-01
 ITU=  1  1 -1  1  0
 Use linear search instead of GDIIS.
     Eigenvalues ---    0.00230   0.00231   0.01008   0.02151   0.02309
     Eigenvalues ---    0.02730   0.02972   0.02972   0.03310   0.15074
     Eigenvalues ---    0.15760   0.16000   0.16007   0.16289   0.20965
     Eigenvalues ---    0.24060   0.35484   0.35624   0.37072   0.50402
     Eigenvalues ---    0.52768   0.53451   0.58182   0.67786
 RFO step:  Lambda=-1.21180349D-04 EMin= 2.29997940D-03
 Quartic linear search produced a step of  0.47410.
 Iteration  1 RMS(Cart)=  0.03480593 RMS(Int)=  0.00082898
 Iteration  2 RMS(Cart)=  0.00098633 RMS(Int)=  0.00024704
 Iteration  3 RMS(Cart)=  0.00000089 RMS(Int)=  0.00024704
 Variable       Old X    -DE/DX   Delta X   Delta X   Delta X     New X
                                 (Linear)    (Quad)   (Total)
    R1        2.55980  -0.00216  -0.00056  -0.00203  -0.00259   2.55721
    R2        2.06896  -0.00084   0.00019  -0.00155  -0.00136   2.06760
    R3        2.58009   0.00081  -0.00209   0.00251   0.00042   2.58051
    R4        2.06090  -0.00041   0.00012  -0.00071  -0.00060   2.06030
    R5        2.06580  -0.00064   0.00050  -0.00149  -0.00099   2.06481
    R6        1.84801   0.00043  -0.00204  -0.00027  -0.00230   1.84571
    R7        3.44567   0.00133   0.02441   0.04445   0.06886   3.51453
    R8        1.82319   0.00083  -0.00083   0.00093   0.00010   1.82329
    R9        1.82319   0.00083  -0.00083   0.00091   0.00008   1.82327
    A1        2.12080   0.00074  -0.00060   0.00095   0.00035   2.12115
[...]
 0.00000604,0.00001140,0.00000884,0.00004320,-0.00007194,-0.00008658,-0
 .00013319,0.00002748,-0.00008472,0.00020634,-0.00005797,0.00034648,-0.
 00034049,0.00011713,-0.00001734,0.00030891,0.00002355,0.00005435,-0.00
 021392,0.00001703,-0.00000932,0.00001222,0.00002525,0.00000396,-0.0000
 0472,-0.00000729,0.00000301,0.00000103,-0.00001572,-0.00000800,-0.0000
 3986,0.00000087,-0.00004231,0.00005015,-0.00003030,-0.00000650,0.00003
 055,0.00004279,0.00001313,0.00004618,0.00003263,0.00002665,-0.00016907
 ,-0.00008758,-0.00000370,-0.00003599,0.00004794,0.00000724,0.00003208,
 -0.00004303,-0.00000925,-0.00000285,-0.00000904,-0.00001027,0.00000885
 ,-0.00005148,0.00000466,0.00000222,-0.00003263,0.00000498,0.00000075,0
 .00006973,0.00003081,0.00000110,0.00000985,-0.00005141,0.00006638,-0.0
 0007132,0.00003000,-0.00007390,-0.00001260,0.00001612,-0.00001734,0.00
 005545,0.00006829,0.00000820,-0.00000606,-0.00001162,0.00000187,0.0000
 1715,-0.00000022,-0.00001124,-0.00004820,-0.00006728,-0.00004763,-0.00
 001291,0.00007369,-0.00003461,0.00002021,0.00001551,0.00000061,-0.0000
 9476,-0.00017560,0.00010634,0.00006258,0.00008009,-0.00005800,0.000014
 23,-0.00001581,-0.00000381,0.00000670,0.00005515,-0.00001046,-0.000005
 33,-0.00000934,-0.00000432,-0.00000811,0.00001739,-0.00000157,-0.00003
 147,-0.00000534,-0.00007103,0.00001531,0.00004456,-0.00000381,-0.00001
 369,0.00000604,-0.00001824,0.00009772,-0.00013505,0.00004393,0.0000223
 3,-0.00000304,0.00001914,-0.00009769,0.00000239,-0.00003674,0.00005224
 ,-0.00001997,0.00001879,-0.00002827,0.00000288,-0.00000273,-0.00001249
 ,-0.00002109,0.00000309,-0.00006334,-0.00000544,0.00000253,0.00001782,
 0.00004115,-0.00003110,0.00006122,-0.00000592,0.00002335,0.00005272,-0
 .00002884,0.00010034,-0.00015298,-0.00001060,0.00000136,0.00000102,0.0
 0004545,-0.00007890,0.00000010,0.00001382,-0.00001713,-0.00000478,0.00
 007100,0.00003192,0.00000266,-0.00000992,0.00000072,-0.00001888,0.0000
 0387,-0.00001190,-0.00002052,-0.00008686,-0.00001260,0.00003732,0.0000
 3843,-0.00004499,0.00000284,0.00003117,0.00003602,-0.00005985,-0.00013
 346,0.00000228,0.00001094,-0.00000012,0.00005179,0.00005017,0.00007207
 ,-0.00003612,0.00763241,-0.00618694,-0.02634042,-0.00263946,0.01720251
 ,-0.01327106,0.00050946,0.00142608,0.00086467,-0.00504830,0.00012395,0
 .00181325,-0.00156258,0.00150210,-0.00255935,0.00210891,0.00220318,0.0
 0372037,-0.00067223,0.00159541,-0.00879200,0.00063380,-0.00064238,0.00
 002385,0.00054767,-0.00026360,-0.00037838,-0.00179484,0.00108224,0.004
 50577,-0.00038198,-0.00014765,-0.00000987,0.00032528,0.00026478,-0.003
 41865,-0.00160687,-0.00529940,0.00124872,-0.00049128,-0.00003048,-0.00
 061358,0.00172446,0.00163962,0.00089864,-0.02278731,0.00578579,-0.0073
 8759,0.00249211,-0.00046805,-0.00001133,0.00108668,0.00080918,-0.00124
 789,0.05401060,-0.00724030,0.01893689,-0.05969255,-0.00108781,-0.00428
 447,0.00344547,0.00086769,0.00199577,0.00178736,1.33142510,0.01395801,
 0.00496250,-0.02230477,0.01324603,0.00057789,0.00524301,-0.00064676,-0
 .00130913,0.00161002,-0.00400884,2.61690223,2.57726343,3.76872165,0.00
 013576,-0.00022007,-0.00015894,0.00158372,-0.00035905,-0.00031501,-0.0
 0000775,0.00004525,0.00000603,0.00116500,-0.00054579,-0.00031875,-0.00
 109601,-0.00017692,-0.00036291,0.00008285,-0.00030039,0.00089496,0.000
 01789,0.00003635,0.00007847,0.00000302,-0.00053619,-0.00064416,0.00046
 324,0.00032611,-0.00041695,-0.00020906,-0.00004515,-0.00028709,-0.0003
 6175,-0.00013637,0.00090203,0.00001771,0.00003257,-0.00000785,-0.00032
 625,0.00043334,0.00010919,0.00025475,0.00009833,-0.00065770,-0.0004436
 8,0.00025671,-0.00042141,0.00204966,0.00002535,-0.00020731,-0.00029846
 ,-0.00001236,0.00009489,-0.00033596,0.00033192,0.00059629,-0.00027574,
 -0.00010374,-0.00003681,-0.00137751,0.00014463,0.00002493,0.00004981,-
 0.00026567,0.00176551,-0.00042161,0.00005182,-0.00009000,-0.00007761,0
 .00061693,0.00078756,0.00040318,-0.00010712,-0.00029039,-0.00025874,-0
 .00014028,-0.00189437,-0.00032043,0.00033607,-0.00162991,0.00007260,0.
 00043342,0.00191273,0.00003399,-0.00026020,0.00001776,0.00032281,-0.00
 041462,0.00066671,-0.00003076,-0.00024226,-0.00008949,0.00030413,0.000
 00817,-0.00056406,0.01585744,0.00599277,0.00821268,-0.00258865,-0.0021
 9336,-0.00048726,0.00008371,-0.00332838,0.00270097,-0.03601178,-1.3239
 9511,-2.61440115,-0.00160630,0.00043471,0.00058536,0.00022841,-0.00069
 661,-0.00022363,0.03474247,0.01351657,0.00564727,0.04386465,-0.0013869
 3,0.00143100,-0.00694584,-0.00035361,-0.00397113,0.00297755,-1.3361248
 6,-0.03293605,-2.55884230,0.00081392,0.00052024,-0.00002044,-0.0003869
 3,-0.00041660,-0.00019008,1.31680669,0.03935081,0.00113667,0.02248642,
 -0.00706477,-0.00126273,-0.00932090,0.00349488,-0.00011117,-0.00558693
 ,0.00521228,-2.60289818,-2.52411527,-3.76413172,0.00022228,-0.00111364
 ,-0.00025815,-0.00053095,-0.00110680,0.00008520,2.58437263,2.50825026,
 3.73693822,-0.00133057,-0.00510621,0.00103269,0.00050415,0.00123434,-0
 .00002827,-0.00028602,0.00108249,-0.00095549,0.00134644,0.00006741,-0.
 00568264,0.00006124,0.00025813,0.00004385,0.00041292,0.00029969,-0.000
 08971,-0.01588800,0.00485240,0.01706221,0.03414703,-0.00105347,-0.0028
 2425,-0.00034611,0.00009512,0.00046253,-0.00005501,0.00009108,0.000713
 57,-0.00070966,-0.00037427,0.00271365,-0.00055616,0.00005108,0.0001725
 5,-0.00005466,0.00004604,0.00017378,0.00029052,0.00504906,-0.01195291,
 0.00351682,-0.00660611,0.01081294,-0.00285977,-0.01214765,0.00333100,0
 .00105970,0.00325398,0.00006966,-0.00002053,0.00216692,-0.00241329,-0.
 00526213,0.00078740,-0.01268024,0.00024272,0.00054656,0.00013683,0.000
 15835,0.00102277,-0.00018498,0.01673054,0.00270192,0.02290638,-0.01079
 802,0.00990178,-0.00133273,-0.00022044,-0.00161788,0.00090236,0.000106
 63,0.00059317,-0.00009860,0.00000282,0.00019879,-0.00033391,-0.0014738
 7,-0.00015235,-0.00261828,0.00001995,0.00005591,-0.00001347,-0.0000255
 5,0.00003379,-0.00004302,0.00822484,0.00350304,0.00674643,-0.01413020,
 -0.00385122,0.00269512,0.00689588,-0.00012246,-0.00035121,0.00018611,0
 .00012331,0.00008044,-0.00008124,0.00000889,0.00005486,-0.00008020,-0.
 00052849,-0.00008131,-0.00087190,-0.00000499,0.00001613,-0.00001373,-0
 .00005431,-0.00000594,0.00004228,0.00321102,-0.00102197,0.00012742,-0.
 00569604,0.00469462,-0.00174650,0.00216912,-0.00384076,-0.00027671,-0.
 00087678,0.00013996,0.00008068,0.00012185,-0.00000131,0.00007261,0.000
 17453,-0.00011196,-0.00007582,0.00046360,0.00014866,0.00005718,0.00006
 009,0.00008238,-0.00001900,0.00021233,-0.00008385,0.00371499,0.0018265
 9,-0.00201591,-0.00041953,-0.00367864,-0.00513848,-0.00550421,0.002083
 42,0.00551211,0.00001313,0.00031212,-0.00042883,-0.00015645,-0.0001948
 4,0.00008948,0.00003240,0.00000566,0.00010910,0.00050810,0.00032925,0.
 00129104,0.00002015,0.00000603,0.00004567,0.00006592,0.00006283,-0.000
 02600,-0.00304215,-0.00124028,-0.00473719,-0.00483700,0.00655268,-0.00
 194599,0.00059995,0.00089395,0.00236981,0.00679596,-0.00008730,-0.0010
 4933,0.00059729,0.00004184,0.00040598,-0.00008354,-0.00006102,0.000141
 21,-0.00021021,-0.00060514,-0.00044588,-0.00240774,0.00000064,0.000032
 06,-0.00003515,0.00003760,-0.00005447,-0.00000332,-0.00128079,0.003349
 36,0.00686260,0.00961394,-0.00496648,-0.00648718,-0.00093236,0.0004551
 5,-0.00038699,-0.00672740,0.00213240,-0.00029578,-0.00155444,0.0005667
 5,0.00013243,0.00040267,-0.00004604,-0.00005340,0.00028017,-0.00022188
 ,-0.00001583,0.00004184,-0.00142467,0.00004049,0.00008392,0.00006985,0
 .00006182,0.00016849,-0.00013010,-0.00120512,0.00637768,0.00483358,-0.
 00016509,-0.00830888,-0.00469415,-0.00173242,0.00035432,0.00146840,0.0
 0323291,0.00215423,-0.00042172,0.00021695,0.00032807,0.00060557,0.0001
 9448,0.00032610,0.00029560,-0.00020358,-0.00001765,0.00020142,0.000091
 90,0.00012468,-0.00006995,0.00024208,-0.00032461,-0.00044490,0.0000685
 4,-0.00016378,0.00010272,-0.00016893,-0.00037256,0.00010363,-0.0001156
 2,-0.00005546,-0.00010598,0.00005254,0.00000970,0.00002427,0.00010935,
 -0.00009401,-0.00012769,-0.00020907,0.00001667,0.00003393,0.00006522,0
 .00004414,0.00007692,-0.00006449,-0.00007833,-0.00018345,0.00001558,0.
 00002256,0.00006477,0.00003258,0.00012325,0.00006098,0.00006106,-0.000
 01010,-0.00006627,-0.00000378,-0.00005174,-0.00001059,-0.00002390,0.00
 000257,0.00002518,-0.00004687,-0.00023995,-0.00029210,-0.00032118,0.00
 009687,0.00011169,0.00018638,-0.00000742,0.00002069,-0.00006634,0.0042
 5406,0.00054554,0.00015850,0.00034993,0.00019443,-0.00015657,-0.000245
 33,-0.00019676,0.00003390,-0.00004669,0.00011086,0.00772553,0.00774406
 ,0.01067469,0.00006831,-0.00004221,-0.00003948,-0.00005598,0.00003884,
 0.00001080,0.00000050,0.00000045,-0.00001560,-0.00000660,-0.00000986,0
 .00000820,-0.00001463,-0.00007728,-0.00010667,-0.00003685,0.00007694,0
 .00004752,0.00012242,-0.00000038,0.00001434,-0.00001175,0.00000856,0.0
 0001174,0.00001462,0.00001696,0.00001534,-0.00001219,0.00006047,0.0000
 0535,-0.00001860,0.00002441,-0.00014709,-0.00001188,-0.00000548,-0.000
 02579,-0.00000946,-0.00004423,0.00000851,0.00001201,0.00000177,0.00000
 325,0.00001071,-0.00003843,-0.00009138,0.00014426,0.00018785,0.0000497
 1,-0.00003827,0.00000214,0.00001414,0.00000365,-0.00000603,0.00002995,
 0.00001357,-0.00004404,0.00001774,-0.00003794,-0.00002879,-0.00015189,
 0.00013109,0.00008064,0.00024225,0.00007003,0.00001845,0.00001016,0.00
 000118,-0.00004894,0.00000257,-0.00014798,0.00000996,0.00006242,-0.000
 01869,-0.00005429,-0.00013628,-0.00010413,0.00008155,-0.00032447,0.000
 15305,0.00039380,0.00012545,-0.00000069,-0.00004460,-0.00000521,0.0000
 6986,-0.00002438,0.00022108,-0.00003006,-0.00016814,0.00009310,-0.0001
 2820,-0.00002156,-0.00030983,-0.00012679,-0.00038700,0.00009907,0.0001
 3985,0.00005036,0.00000347,-0.00001048,0.00006925,-0.00003433,0.000198
 60,-0.00436029,-0.00846141,-0.00002578,0.00002930,0.00003485,-0.000027
 69,0.00005446,-0.00003917,-0.00078765,-0.00003154,-0.00034545,0.000194
 51,0.00002772,0.00016622,0.00003591,0.00000521,0.00003129,-0.00003414,
 -0.00449635,-0.00018174,-0.00838426,0.00002879,0.00000796,0.00003037,-
 0.00001150,-0.00001222,-0.00006009,0.00520703,0.00011135,-0.00024416,-
 0.00082653,0.00005617,0.00002749,0.00010192,0.00010113,0.00002606,0.00
 015107,-0.00008802,-0.00833072,-0.00799266,-0.01172626,0.00003529,0.00
 002998,0.00002516,0.00002783,0.00014325,-0.00009048,0.00962512,0.00930
 020,0.01290996,0.00013158,-0.00012406,-0.00013018,-0.00018958,0.000064
 97,0.00008265,0.00000208,0.00001095,-0.00001802,0.00002076,0.00045441,
 0.00031925,0.00007623,-0.00002230,-0.00003609,-0.00039846,0.00007130,0
 .00020588,-0.00059649,-0.00041421,0.00027130,2.87447155,-0.00006177,0.
 00012669,-0.00008565,0.00009965,0.00007944,-0.00001008,0.00000028,-0.0
 0002473,0.00002787,0.00032742,0.00038295,0.00035131,-0.00005860,-0.000
 01070,-0.00006952,0.00006137,-0.00024846,-0.00006390,-0.00015342,-0.00
 104496,0.00001866,-1.57900404,-0.49603817,-0.00019227,-0.00027612,-0.0
 0008259,0.00004252,-0.00012369,0.00000658,-0.00000986,0.00005966,-0.00
 007539,0.00043723,0.00070253,0.00035814,0.00000079,0.00003647,0.000060
 10,0.00020958,-0.00001016,0.00015045,0.00003973,-0.00068572,0.00018665
 ,-0.87382738,-0.53602746,1.65192657,-0.00005831,0.00048948,-0.00030848
 ,-0.00012173,-0.00039478,-0.00015078,0.00001838,-0.00002255,0.00001208
 ,-0.00002092,-0.00014849,0.00056836,-0.00000305,0.00002526,0.00006948,
 0.00017010,0.00030317,-0.00021914,0.00036231,-0.00072552,-0.00167052,-
 0.79659239,0.07104103,1.87101301,0.84363414,-0.00000742,0.00009720,-0.
 00000679,0.00007593,0.00001367,0.00005408,-0.00000714,-0.00001970,0.00
 001063,-0.00002731,-0.00028015,0.00005394,0.00001099,-0.00003122,-0.00
 001301,-0.00020449,0.00004499,0.00006272,0.00013227,0.00072099,-0.0002
 5495,0.04578585,0.66691487,-0.03250891,-0.08558002,-0.69221059,0.00002
 639,0.00018517,0.00009247,0.00001601,0.00008723,-0.00004776,0.00003249
 ,-0.00005744,0.00006426,-0.00005281,-0.00003753,0.00008050,-0.00001713
 ,0.00000541,-0.00002417,-0.00006031,-0.00019386,0.00011734,-0.00011041
 ,-0.00015346,-0.00050805,1.94749874,-0.06685854,-1.88878930,-1.9358872
 9,0.05834233,1.86409542,0.00001570,-0.00014263,0.00024680,0.00014610,0
 .00029473,0.00009085,0.00000541,-0.00002961,0.00003288,-0.00018200,-0.
 00003329,-0.00022570,-0.00005256,-0.00001303,-0.00004585,0.00016007,-0
 .00040596,0.00009260,0.00087412,0.00041038,0.00023233,-2.07692529,1.50
 774808,-0.99771334,-0.04738851,0.03982134,-0.01144568,2.12334697,0.000
 08801,0.00026429,-0.00023425,-0.00013217,-0.00017987,0.00001238,-0.000
 00738,-0.00001521,0.00000508,0.00004184,-0.00032118,0.00031041,0.00000
 468,-0.00001073,0.00003391,0.00010741,0.00018647,-0.00015542,-0.000641
 96,0.00054657,-0.00067094,1.53317712,-0.17013695,0.56883339,0.01501244
 ,0.02474995,0.00868070,-1.54764999,0.14491666,0.00016932,0.00034154,-0
 .00015623,-0.00011196,-0.00013041,-0.00011265,-0.00002090,-0.00003592,
 0.00007700,0.00021205,-0.00014665,0.00027481,0.00003520,0.00000606,0.0
 0000159,-0.00006905,0.00004669,0.00002257,-0.00115691,-0.00024332,-0.0
 0086626,-1.07436616,0.60271731,0.23625879,0.06657328,-0.02574005,0.024
 91930,1.00873512,-0.57681526,-0.26041892,0.00036310,-0.00011518,0.0001
 3819,-0.00022208,-0.00008105,-0.00008400,-0.00020213,0.00010609,0.0000
 5822,0.00028024,0.00005594,0.00006618,-0.00008731,-0.00005979,-0.00007
 578,0.00011351,0.00007564,0.00001425,-0.00002421,0.00009453,0.00012098
 ,-0.00008875,0.00000813,0.00007033,0.00004080,0.00000117,-0.00004064,0
 .00005816,0.00003301,-0.00009130,0.00007066,-0.00004105,-0.00001291,-0
 .00004339,-0.00001987,0.00006423,0.00005085,0.00001811,0.00000651,-0.0
 0000265,0.00005548,-0.00000600,-0.00002183,-0.00006006,0.00006276,-0.0
 0009743,0.00000060,-0.00004847,-0.00000411,0.00004926,0.00002212,-0.00
 001067,0.00002521,-0.00001904,0.00023909,0.00001038,0.00005606,-0.0000
 9049,0.00003226,0.00003738,0.00002070,0.00001073,0.00001140,0.00001280
 ,0.00000767,-0.00010530,-0.00005343,-0.00012532,-0.00012851,0.00003644
 ,0.00007909,0.00000902,-0.00000576,0.00004780,-0.00007140,0.00023582,0
 .00026113,0.00058021,0.00002643,-0.00002270,0.00000195,-0.00001119,-0.
 00004838,-0.00004819,-0.00002032,0.00001728,0.00000053,0.00000650,0.00
 000287,-0.00001377,-0.00000385,0.00000327,-0.00003522,0.00006908,-0.00
 003946,0.00005639,-0.00013382,0.00001165,0.00002404,-0.00001623,-0.000
 01315,-0.00000142,-0.00001981,0.00000487,-0.00007137,-0.00002970,-0.00
 001027,-0.00004122,-0.00004947,-0.00014696,0.00002549,0.00000841,0.000
 00250,-0.00000715,0.00000184,0.00002221,-0.00000526,0.00003488,0.00005
 677,0.00002106,0.00011316,-0.00006986,-0.00000564,-0.00024445,0.000056
 35,0.00006499,-0.00000274,0.00000301,-0.00000346,-0.00002125,0.0000153
 1,-0.00001799,-0.00000562,0.00002643,0.00003215,0.00034565,-0.00003322
 ,0.00000179,0.00005213,0.00010758,0.00003402,0.00000709,-0.00001049,-0
 .00000056,-0.00003261,-0.00000449,-0.00000928,-0.00002207,0.00003287,0
 .00000828,0.00005386,-0.00009014,-0.00010608,-0.00004480,-0.00007741,0
 .00007854,0.00002152,-0.00011816,-0.00011875,0.00000946,0.00000751,0.0
 0001698,-0.00000105,0.00003407,-0.00005314,0.00002975,0.00004052,0.000
 01808,-0.00008325,0.00020595,-0.00000901,-0.00023829,0.00023894,0.0000
 8269,0.00017531,-0.00011477,-0.00006339,0.00004773,-0.00003279,0.00000
 560,-0.00014177,-0.00005823,0.00003187,-0.00001930,0.00001196,0.000018
 62,-0.00003259,-0.00004062,0.00004577,0.00039063,0.00011919,0.00012203
 ,-0.00011004,-0.00008390,-0.00003198,0.00001202,-0.00000691,-0.0000136
 2,0.00004837,0.00004380,-0.00014841,0.00013467,0.00001567,0.00000526,0
 .00001237,0.00000822,-0.00013920,0.00010705,-0.00033179,0.00019017,0.0
 0019040,0.00023128,-0.00001326,-0.00009043,-0.00007597,0.00004537,-0.0
 0001884,-0.00002638,0.00002862,-0.00005457,-0.00014328,-0.00016550,0.0
 0001498,0.00000014,0.00001360,0.00000626,-0.00001453,-0.00001027,-0.00
 033993,-0.00056557,0.00014317,0.00003257,-0.00046870,0.00026292,0.0000
 4198,0.00012047,-0.00007396,-0.00004687,0.00005573,-0.00003604,0.00056
 199,0.00027101,-0.00032816,0.00005855,0.00000177,-0.00000538,-0.000311
 84,0.00011986,0.00002019,-0.00139343,0.00022023,0.00092618,2.80373618,
 -0.00012351,-0.00118814,0.00085573,-0.00000738,0.00020580,-0.00018027,
 0.00000929,0.00009032,-0.00010870,-0.00003904,0.00132436,-0.00082409,0
 .00001521,0.00006954,0.00003343,0.00012409,0.00013342,-0.00012351,0.00
 076522,-0.00136007,0.00184342,-1.63273676,-0.59310326,-0.00005884,-0.0
 0011116,0.00001339,0.00003532,0.00016370,-0.00001464,0.00000620,0.0000
 2147,-0.00004833,-0.00002032,0.00005509,0.00046836,-0.00001552,-0.0000
 0504,0.00001323,0.00000985,-0.00010849,-0.00017457,0.00039923,0.000284
 07,-0.00091817,-0.81817857,-0.65485873,1.81302653,-0.00002812,0.000269
 38,-0.00016307,-0.00002961,-0.00014627,-0.00005039,0.00001354,-0.00001
 723,-0.00000561,-0.00036469,-0.00020091,-0.00000751,-0.00001345,0.0000
 0640,0.00001220,0.00007549,0.00004083,0.00002711,0.00083282,-0.0002435
 6,-0.00009341,-0.70679385,0.03048895,1.98769204,0.70041507,-0.00006920
 ,0.00047144,-0.00027899,0.00005773,-0.00012259,0.00007662,0.00002934,-
 0.00004779,0.00003626,-0.00026624,-0.00047725,0.00035462,-0.00000074,-
 0.00003386,-0.00002042,-0.00013238,0.00003920,-0.00000671,0.00032198,0
 .00056496,-0.00091486,0.02972663,0.74348209,-0.01560520,-0.02628462,-0
 .74238264,-0.00008835,0.00004930,0.00014894,0.00015850,0.00000499,-0.0
 0006830,-0.00001312,-0.00000822,0.00001855,0.00007437,-0.00010154,-0.0
 0032621,-0.00003367,0.00001037,-0.00001583,-0.00002309,-0.00008618,0.0
 0011806,-0.00010932,0.00011192,0.00035491,1.98750399,-0.01653614,-2.04
 322073,-1.98577625,0.01814295,2.03881212,0.00011946,0.00005330,-0.0000
 3684,-0.00004685,0.00008603,0.00010016,0.00000913,-0.00002329,0.000031
 65,-0.00016767,-0.00009108,0.00012250,-0.00001774,-0.00001373,-0.00002
 356,0.00008418,-0.00012219,-0.00002470,0.00037890,0.00025905,-0.000540
 64,-2.09588527,1.60150393,-1.16986939,0.00589280,-0.00338250,-0.001693
 05,2.08963306,0.00011933,0.00045896,-0.00039973,-0.00007208,-0.0001565
 4,0.00007090,-0.00003303,-0.00002380,0.00004658,0.00019639,-0.00068754
 ,0.00011398,-0.00001695,-0.00002164,-0.00000350,0.00005897,0.00003840,
 -0.00006931,-0.00075989,0.00081085,-0.00033424,1.60268974,-0.14965407,
 0.67016428,-0.00391297,-0.00149356,-0.00158745,-1.59826950,0.15072893,
 0.00014246,0.00003087,0.00000536,-0.00014323,0.00003063,-0.00000745,0.
 00000580,-0.00001189,-0.00000054,-0.00019070,-0.00007068,-0.00030756,0
 .00002906,-0.00000198,-0.00002201,0.00002017,-0.00005514,0.00013408,-0
 .00007114,-0.00003486,0.00052154,-1.17009117,0.66989886,0.23085493,-0.
 00163512,-0.00178429,0.00417848,1.17193387,-0.66800151,-0.23535682\\@
 The archive entry for this job was punched.


 I WOULD TAKE COUNSEL OF MYSELF.
 I WOULD STOP AND LOOK WITHIN
 AND LOOKING WITHIN, LOOK BACK, ALSO
 THAT I MAY LOOK AHEAD WITH CLEARER UNDERSTANDING
 OF THE WAY I HAVE BEEN MOVING, AND IN WHAT DIRECTION.
 I NEED TO KNOW IF I AM GOING FORWARD OR RETREATING,
 WHETHER I HAVE BEEN WASTING, OR ENJOYING
 THE PRECIOUS MOMENTS OF LIFE.  THERE HAVE BEEN FRICTIONS,
 ANNOYANCES AND SOMETIMES WRATH,
 BUT WERE THEY BECAUSE I WAS RIGHT AND OTHERS WRONG.....
 HAVE I HAD MY THOUGHTS TOO SHARPLY FOCUSED
 ON THAT WHICH PLEASED ME, SERVED MY SELF-ESTEEM,
 UNDERGIRDED MY SECURITY,
 OF WHICH I DID NOT INQUIRE WHETHER IT SERVED OR HAMPERED OTHERS.....
 HAVE I BEEN TRYING TO STOP THE CLOCK
 TO HOLD THE WORLD
 IN PERPETUATION OF WHAT WAS AN IS ALREADY SLIPPING AWAY.....
 HAVE I BEEN CRITICAL OF OTHERS FOR WHAT REALLY NEEDED CHANGING IN ME...
 LET ME INDEED TAKE COUNSEL OF MYSELF
 AND SET MY DIRECTIONS STRAIGHT.

                          R.T. WESTON AS ADAPTED BY D. OSBORN 1967
 Job cpu time:       1 days 18 hours 50 minutes 20.3 seconds.
 Elapsed time:       0 days  1 hours  5 minutes 31.1 seconds.
 File lengths (MBytes):  RWF=   2186 Int=      0 D2E=      0 Chk=     44 Scr=      1
 Normal termination of Gaussian 16 at Fri Mar 21 15:00:45 2025.
